 INFO
nunit      1    1    1
unit   cell
celltype   primcell
shape   parapipedal
 END_INFO
 DIM-GROUP
           3           9
 PRIMVEC
   12.3048999510    0.0000000000    0.0000000000
   -6.1524499750   10.6563509800    0.0000000000
    0.0000000000    0.0000000000   13.9999983580
 CONVVEC
   12.3048999510    0.0000000000    0.0000000000
   -6.1524499750   10.6563509800    0.0000000000
    0.0000000000    0.0000000000   13.9999983580
 PRIMCOORD
          56           1
  6      1.2305023000     0.7104376070     6.9999711790    -0.0098555500    -0.0010065500     0.0023238800
  6      0.0000123050     1.4208539020     6.9999711790    -0.0015856500    -0.0069495100     0.0000855400
  6     -0.0045624230     2.8390835280     7.0085674160     0.0005392300     0.0002230200    -0.0004438600
  6     -1.2304838430     3.5521347540     6.9999711790    -0.0095772000    -0.0029129600    -0.0079684000
  6     -1.2374454140     4.9710232830     6.9789872400     0.0001293100    -0.0001390600     0.0000202800
  6     -2.4609799900     5.6834156060     6.9999711790    -0.0364104700    -0.0607445800     0.0092795100
  6     -2.4521835250     7.1078530470     7.4014123120    -0.0000873400    -0.0001533600    -0.0001692000
  6     -3.6914761380     7.8146964590     6.9999711790    -0.0695023100     0.0069228500     0.0140550400
  6     -3.6914822900     9.2355397040     6.9999711790    -0.0107202900    -0.0228282800    -0.0112293100
  6     -4.9219784380     9.9459666550     6.9999711790    -0.0045971200     0.0014209400    -0.0056091800
  6      3.6914822900     0.7104376070     6.9999711790     0.0018837700    -0.0239771700    -0.0031333800
  6      2.4567128720     1.4295272970     7.0092981460     0.0000548300    -0.0005348500    -0.0002426500
  6      2.4477710190     2.8355094410     7.0419602260     0.0002406800    -0.0004713500    -0.0001173800
  6      1.2181346940     3.5497354340     7.0515744590     0.0003095000    -0.0003905000     0.0000368500
  6      1.1957551140     4.9634499110     7.1261546200     0.0005924800    -0.0002194200    -0.0003314600
  6      0.0013577840     5.6695401850     7.0539427130     0.0000607000    -0.0007121400     0.0002065700
  6      0.0022914060     7.1180155830     7.0570202350     0.0002916500    -0.0007241800     0.0009562300
  6     -1.1880639000     7.8284492570     7.0882454810    -0.0004305100    -0.0005740700    -0.0002641200
  6     -1.2228107840     9.2399685150     7.0185080590     0.0000957900    -0.0003610000    -0.0000478500
  6     -2.4609984480     9.9459666550     6.9999711790     0.0136293300     0.0273588700     0.0082853100
  6      6.1524745850     0.7104376070     6.9999711790    -0.0031801400     0.0049952500    -0.0050581100
  6      4.9262701530     1.4175461280     6.9836382490     0.0001010700    -0.0000394500    -0.0003520700
  6      4.9191029730     2.8354050080     6.9671881530     0.0004653400     0.0002900500     0.0002641300
  6      3.6934532830     3.5553878290     7.0247703700     0.0001334100    -0.0004462200     0.0001015200
  6      3.7044958420     4.9515929190     7.0941144620    -0.0001030600    -0.0002894000     0.0006574300
  6      2.4580653040     5.6839130660     7.4804513190    -0.0000058900     0.0002086700     0.0003229600
  6      2.4635268400     7.1305194150     7.1026496870    -0.0004075700     0.0006609300     0.0002843900
  6      1.2484445180     7.8190352350     7.0243785520    -0.0002943800    -0.0003081300     0.0003410500
  6      1.2330116690     9.2402051720     6.9943118200    -0.0000549100    -0.0000218900     0.0000716200
  6     -0.0000061520     9.9459666550     6.9999711790     0.0088780500     0.0109839500    -0.0043319000
  6      8.6134668800     0.7104376070     6.9999711790     0.0088137200     0.0037921200    -0.0003650900
  6      7.3847495410     1.4289908570     6.9984407410     0.0000253400    -0.0002473600     0.0001517600
  6      7.3866901720     2.8387363650     6.9936811760    -0.0001014700    -0.0001170400     0.0003675900
  6      6.1424316340     3.5502318710     6.9875922270     0.0000557300     0.0000402000    -0.0007558800
  6      6.1174740970     4.9468324290     7.0402006090     0.0000260800     0.0008080300     0.0007454100
  6      4.9187514590     5.6625470290     7.0394054370    -0.0001060000    -0.0004122200     0.0006085500
  6      4.9247518020     7.1074153270     7.0448689780    -0.0007707100     0.0002002400     0.0005686900
  6      3.6930424100     7.8152870230     7.0444515260     0.0001314300     0.0001905300     0.0002727200
  6      3.6926129870     9.2402259830     6.9992753930    -0.0001587200     0.0005744600     0.0000625400
  6      2.4609861430     9.9459666550     6.9999711790     0.0081432100     0.0093123400    -0.0018382500
  6     11.0744468710     0.7104376070     6.9999711790     0.0017211300    -0.0002766400    -0.0000682000
  6      9.8439568750     1.4208539020     6.9999711790    -0.0047712600    -0.0030058500     0.0016936100
  6      9.8439507230     2.8416971470     6.9999711790    -0.0004397500     0.0024761400    -0.0110225900
  6      8.6164911970     3.5557991640     6.9739937900     0.0000505500    -0.0000473800    -0.0002760900
  6      8.6134545760     4.9729779990     6.9999711790     0.0686045200     0.0015049300     0.0101545000
  6      7.3694793880     5.6740623250     7.3963812030     0.0000371300     0.0005962400     0.0001443900
  6      7.3829584280     7.1042588520     6.9999711790     0.0376767500     0.0528941900     0.0115195800
  6      6.1511163090     7.8128023770     6.9849763270    -0.0001272600    -0.0001319400     0.0000230000
  6      6.1524622800     9.2355397040     6.9999711790     0.0029419000     0.0001374600    -0.0089979300
  6      4.9219661330     9.9459666550     6.9999711790    -0.0024672400     0.0028985400    -0.0014721200
  8      2.4711395560     5.7558677100     8.9832594710    -0.0000420300     0.0003664400    -0.0003784500
  1      2.8573370540     4.9151395140     9.3064390310    -0.0003768300    -0.0002551000     0.0004347900
  8     -2.5594612730     7.1293431350     8.9153874230    -0.0001674700     0.0002257400     0.0002384400
  1     -1.7131539220     6.7762463410     9.2645229240     0.0000748900    -0.0002999400    -0.0001903400
  8      7.3258763480     5.6544967530     8.8797421670     0.0000326100    -0.0000565000    -0.0000072100
  1      8.1340618690     6.1511936620     9.1712361190     0.0006010100    -0.0004281000     0.0003931800
 CONVCOORD
          56           1
  6      1.2305023000     0.7104376070     6.9999711790
  6      0.0000123050     1.4208539020     6.9999711790
  6     -0.0045624230     2.8390835280     7.0085674160
  6     -1.2304838430     3.5521347540     6.9999711790
  6     -1.2374454140     4.9710232830     6.9789872400
  6     -2.4609799900     5.6834156060     6.9999711790
  6     -2.4521835250     7.1078530470     7.4014123120
  6     -3.6914761380     7.8146964590     6.9999711790
  6     -3.6914822900     9.2355397040     6.9999711790
  6     -4.9219784380     9.9459666550     6.9999711790
  6      3.6914822900     0.7104376070     6.9999711790
  6      2.4567128720     1.4295272970     7.0092981460
  6      2.4477710190     2.8355094410     7.0419602260
  6      1.2181346940     3.5497354340     7.0515744590
  6      1.1957551140     4.9634499110     7.1261546200
  6      0.0013577840     5.6695401850     7.0539427130
  6      0.0022914060     7.1180155830     7.0570202350
  6     -1.1880639000     7.8284492570     7.0882454810
  6     -1.2228107840     9.2399685150     7.0185080590
  6     -2.4609984480     9.9459666550     6.9999711790
  6      6.1524745850     0.7104376070     6.9999711790
  6      4.9262701530     1.4175461280     6.9836382490
  6      4.9191029730     2.8354050080     6.9671881530
  6      3.6934532830     3.5553878290     7.0247703700
  6      3.7044958420     4.9515929190     7.0941144620
  6      2.4580653040     5.6839130660     7.4804513190
  6      2.4635268400     7.1305194150     7.1026496870
  6      1.2484445180     7.8190352350     7.0243785520
  6      1.2330116690     9.2402051720     6.9943118200
  6     -0.0000061520     9.9459666550     6.9999711790
  6      8.6134668800     0.7104376070     6.9999711790
  6      7.3847495410     1.4289908570     6.9984407410
  6      7.3866901720     2.8387363650     6.9936811760
  6      6.1424316340     3.5502318710     6.9875922270
  6      6.1174740970     4.9468324290     7.0402006090
  6      4.9187514590     5.6625470290     7.0394054370
  6      4.9247518020     7.1074153270     7.0448689780
  6      3.6930424100     7.8152870230     7.0444515260
  6      3.6926129870     9.2402259830     6.9992753930
  6      2.4609861430     9.9459666550     6.9999711790
  6     11.0744468710     0.7104376070     6.9999711790
  6      9.8439568750     1.4208539020     6.9999711790
  6      9.8439507230     2.8416971470     6.9999711790
  6      8.6164911970     3.5557991640     6.9739937900
  6      8.6134545760     4.9729779990     6.9999711790
  6      7.3694793880     5.6740623250     7.3963812030
  6      7.3829584280     7.1042588520     6.9999711790
  6      6.1511163090     7.8128023770     6.9849763270
  6      6.1524622800     9.2355397040     6.9999711790
  6      4.9219661330     9.9459666550     6.9999711790
  8      2.4711395560     5.7558677100     8.9832594710
  1      2.8573370540     4.9151395140     9.3064390310
  8     -2.5594612730     7.1293431350     8.9153874230
  1     -1.7131539220     6.7762463410     9.2645229240
  8      7.3258763480     5.6544967530     8.8797421670
  1      8.1340618690     6.1511936620     9.1712361190
 RECIP-PRIMVEC
    0.0812684381    0.0469203765   -0.0000000000

    0.0000000000    0.0938407530    0.0000000000

    0.0000000000   -0.0000000000    0.0714285798

 RECIP-CONVVEC
    0.0812684381    0.0469203765   -0.0000000000

    0.0000000000    0.0938407530    0.0000000000

    0.0000000000   -0.0000000000    0.0714285798

 WIGNER-SEITZ-PRIMCELL
           4
  0.6152450E+01 -0.3552115E+01 -0.6999999E+01   0.1000000E+01 -0.0000000E+00 -0.0000000E+00
  0.6152450E+01  0.3552115E+01 -0.6999999E+01   0.1000000E+01 -0.0000000E+00 -0.0000000E+00
  0.6152450E+01  0.3552115E+01  0.6999999E+01   0.1000000E+01 -0.0000000E+00 -0.0000000E+00
  0.6152450E+01 -0.3552115E+01  0.6999999E+01   0.1000000E+01 -0.0000000E+00 -0.0000000E+00
           4
  0.6152450E+01 -0.3552115E+01  0.6999999E+01   0.5000002E+00 -0.8660253E+00 -0.1435454E-15
 -0.4999987E-09 -0.7104236E+01  0.6999999E+01   0.5000002E+00 -0.8660253E+00 -0.1435454E-15
 -0.5000007E-09 -0.7104236E+01 -0.6999999E+01   0.5000002E+00 -0.8660253E+00 -0.1435454E-15
  0.6152450E+01 -0.3552115E+01 -0.6999999E+01   0.5000002E+00 -0.8660253E+00 -0.1435454E-15
           4
  0.6152450E+01  0.3552115E+01 -0.6999999E+01   0.5000002E+00  0.8660253E+00 -0.7210489E-16
  0.4999987E-09  0.7104236E+01 -0.6999999E+01   0.5000002E+00  0.8660253E+00 -0.7210489E-16
  0.5000007E-09  0.7104236E+01  0.6999999E+01   0.5000002E+00  0.8660253E+00 -0.7210489E-16
  0.6152450E+01  0.3552115E+01  0.6999999E+01   0.5000002E+00  0.8660253E+00 -0.7210489E-16
           6
 -0.6152450E+01 -0.3552115E+01 -0.6999999E+01  -0.1625643E-15  0.0000000E+00 -0.1000000E+01
 -0.6152450E+01  0.3552115E+01 -0.6999999E+01  -0.1625643E-15  0.0000000E+00 -0.1000000E+01
  0.4999987E-09  0.7104236E+01 -0.6999999E+01  -0.1625643E-15  0.0000000E+00 -0.1000000E+01
  0.6152450E+01  0.3552115E+01 -0.6999999E+01  -0.1625643E-15  0.0000000E+00 -0.1000000E+01
  0.6152450E+01 -0.3552115E+01 -0.6999999E+01  -0.1625643E-15  0.0000000E+00 -0.1000000E+01
 -0.5000007E-09 -0.7104236E+01 -0.6999999E+01  -0.1625643E-15  0.0000000E+00 -0.1000000E+01
           6
 -0.5000007E-09 -0.7104236E+01  0.6999999E+01  -0.3251285E-15 -0.0000000E+00  0.1000000E+01
  0.6152450E+01 -0.3552115E+01  0.6999999E+01  -0.3251285E-15 -0.0000000E+00  0.1000000E+01
  0.6152450E+01  0.3552115E+01  0.6999999E+01  -0.3251285E-15 -0.0000000E+00  0.1000000E+01
  0.4999987E-09  0.7104236E+01  0.6999999E+01  -0.3251285E-15 -0.0000000E+00  0.1000000E+01
 -0.6152450E+01  0.3552115E+01  0.6999999E+01  -0.3251285E-15 -0.0000000E+00  0.1000000E+01
 -0.6152450E+01 -0.3552115E+01  0.6999999E+01  -0.3251285E-15 -0.0000000E+00  0.1000000E+01
           4
 -0.6152450E+01 -0.3552115E+01  0.6999999E+01  -0.5000002E+00 -0.8660253E+00  0.0000000E+00
 -0.6152450E+01 -0.3552115E+01 -0.6999999E+01  -0.5000002E+00 -0.8660253E+00  0.0000000E+00
 -0.5000007E-09 -0.7104236E+01 -0.6999999E+01  -0.5000002E+00 -0.8660253E+00  0.0000000E+00
 -0.4999997E-09 -0.7104236E+01  0.6999999E+01  -0.5000002E+00 -0.8660253E+00  0.0000000E+00
           4
  0.4999997E-09  0.7104236E+01  0.6999999E+01  -0.5000002E+00  0.8660253E+00  0.1428811E-15
  0.4999987E-09  0.7104236E+01 -0.6999999E+01  -0.5000002E+00  0.8660253E+00  0.1428811E-15
 -0.6152450E+01  0.3552115E+01 -0.6999999E+01  -0.5000002E+00  0.8660253E+00  0.1428811E-15
 -0.6152450E+01  0.3552115E+01  0.6999999E+01  -0.5000002E+00  0.8660253E+00  0.1428811E-15
           4
 -0.6152450E+01 -0.3552115E+01  0.6999999E+01  -0.1000000E+01  0.0000000E+00  0.6344132E-16
 -0.6152450E+01  0.3552115E+01  0.6999999E+01  -0.1000000E+01  0.0000000E+00  0.6344132E-16
 -0.6152450E+01  0.3552115E+01 -0.6999999E+01  -0.1000000E+01  0.0000000E+00  0.6344132E-16
 -0.6152450E+01 -0.3552115E+01 -0.6999999E+01  -0.1000000E+01  0.0000000E+00  0.6344132E-16
 WIGNER-SEITZ-PRIMCELL_END
 WIGNER-SEITZ-CONVCELL
           4
  0.6152450E+01 -0.3552115E+01 -0.6999999E+01   0.1000000E+01 -0.0000000E+00 -0.0000000E+00
  0.6152450E+01  0.3552115E+01 -0.6999999E+01   0.1000000E+01 -0.0000000E+00 -0.0000000E+00
  0.6152450E+01  0.3552115E+01  0.6999999E+01   0.1000000E+01 -0.0000000E+00 -0.0000000E+00
  0.6152450E+01 -0.3552115E+01  0.6999999E+01   0.1000000E+01 -0.0000000E+00 -0.0000000E+00
           4
  0.6152450E+01 -0.3552115E+01  0.6999999E+01   0.5000002E+00 -0.8660253E+00 -0.1435454E-15
 -0.4999987E-09 -0.7104236E+01  0.6999999E+01   0.5000002E+00 -0.8660253E+00 -0.1435454E-15
 -0.5000007E-09 -0.7104236E+01 -0.6999999E+01   0.5000002E+00 -0.8660253E+00 -0.1435454E-15
  0.6152450E+01 -0.3552115E+01 -0.6999999E+01   0.5000002E+00 -0.8660253E+00 -0.1435454E-15
           4
  0.6152450E+01  0.3552115E+01 -0.6999999E+01   0.5000002E+00  0.8660253E+00 -0.7210489E-16
  0.4999987E-09  0.7104236E+01 -0.6999999E+01   0.5000002E+00  0.8660253E+00 -0.7210489E-16
  0.5000007E-09  0.7104236E+01  0.6999999E+01   0.5000002E+00  0.8660253E+00 -0.7210489E-16
  0.6152450E+01  0.3552115E+01  0.6999999E+01   0.5000002E+00  0.8660253E+00 -0.7210489E-16
           6
 -0.6152450E+01 -0.3552115E+01 -0.6999999E+01  -0.1625643E-15  0.0000000E+00 -0.1000000E+01
 -0.6152450E+01  0.3552115E+01 -0.6999999E+01  -0.1625643E-15  0.0000000E+00 -0.1000000E+01
  0.4999987E-09  0.7104236E+01 -0.6999999E+01  -0.1625643E-15  0.0000000E+00 -0.1000000E+01
  0.6152450E+01  0.3552115E+01 -0.6999999E+01  -0.1625643E-15  0.0000000E+00 -0.1000000E+01
  0.6152450E+01 -0.3552115E+01 -0.6999999E+01  -0.1625643E-15  0.0000000E+00 -0.1000000E+01
 -0.5000007E-09 -0.7104236E+01 -0.6999999E+01  -0.1625643E-15  0.0000000E+00 -0.1000000E+01
           6
 -0.5000007E-09 -0.7104236E+01  0.6999999E+01  -0.3251285E-15 -0.0000000E+00  0.1000000E+01
  0.6152450E+01 -0.3552115E+01  0.6999999E+01  -0.3251285E-15 -0.0000000E+00  0.1000000E+01
  0.6152450E+01  0.3552115E+01  0.6999999E+01  -0.3251285E-15 -0.0000000E+00  0.1000000E+01
  0.4999987E-09  0.7104236E+01  0.6999999E+01  -0.3251285E-15 -0.0000000E+00  0.1000000E+01
 -0.6152450E+01  0.3552115E+01  0.6999999E+01  -0.3251285E-15 -0.0000000E+00  0.1000000E+01
 -0.6152450E+01 -0.3552115E+01  0.6999999E+01  -0.3251285E-15 -0.0000000E+00  0.1000000E+01
           4
 -0.6152450E+01 -0.3552115E+01  0.6999999E+01  -0.5000002E+00 -0.8660253E+00  0.0000000E+00
 -0.6152450E+01 -0.3552115E+01 -0.6999999E+01  -0.5000002E+00 -0.8660253E+00  0.0000000E+00
 -0.5000007E-09 -0.7104236E+01 -0.6999999E+01  -0.5000002E+00 -0.8660253E+00  0.0000000E+00
 -0.4999997E-09 -0.7104236E+01  0.6999999E+01  -0.5000002E+00 -0.8660253E+00  0.0000000E+00
           4
  0.4999997E-09  0.7104236E+01  0.6999999E+01  -0.5000002E+00  0.8660253E+00  0.1428811E-15
  0.4999987E-09  0.7104236E+01 -0.6999999E+01  -0.5000002E+00  0.8660253E+00  0.1428811E-15
 -0.6152450E+01  0.3552115E+01 -0.6999999E+01  -0.5000002E+00  0.8660253E+00  0.1428811E-15
 -0.6152450E+01  0.3552115E+01  0.6999999E+01  -0.5000002E+00  0.8660253E+00  0.1428811E-15
           4
 -0.6152450E+01 -0.3552115E+01  0.6999999E+01  -0.1000000E+01  0.0000000E+00  0.6344132E-16
 -0.6152450E+01  0.3552115E+01  0.6999999E+01  -0.1000000E+01  0.0000000E+00  0.6344132E-16
 -0.6152450E+01  0.3552115E+01 -0.6999999E+01  -0.1000000E+01  0.0000000E+00  0.6344132E-16
 -0.6152450E+01 -0.3552115E+01 -0.6999999E+01  -0.1000000E+01  0.0000000E+00  0.6344132E-16
 WIGNER-SEITZ-CONVCELL_END
 BRILLOUIN-ZONE-PRIMCELL
           4
 -0.5417897E-01  0.3813147E-11 -0.3571429E-01  -0.8660253E+00 -0.5000002E+00 -0.3418542E-26
 -0.2708947E-01 -0.4692038E-01 -0.3571429E-01  -0.8660253E+00 -0.5000002E+00 -0.3418542E-26
 -0.2708947E-01 -0.4692038E-01  0.3571429E-01  -0.8660253E+00 -0.5000002E+00 -0.3418542E-26
 -0.5417897E-01  0.3813141E-11  0.3571429E-01  -0.8660253E+00 -0.5000002E+00 -0.3418542E-26
           4
 -0.5417897E-01  0.3813147E-11  0.3571429E-01  -0.8660253E+00  0.5000002E+00  0.5603216E-16
 -0.2708947E-01  0.4692038E-01  0.3571429E-01  -0.8660253E+00  0.5000002E+00  0.5603216E-16
 -0.2708947E-01  0.4692038E-01 -0.3571429E-01  -0.8660253E+00  0.5000002E+00  0.5603216E-16
 -0.5417897E-01  0.3813147E-11 -0.3571429E-01  -0.8660253E+00  0.5000002E+00  0.5603216E-16
           4
 -0.2708947E-01 -0.4692038E-01 -0.3571429E-01  -0.3732495E-31 -0.1000000E+01  0.2793475E-16
  0.2708947E-01 -0.4692038E-01 -0.3571429E-01  -0.3732495E-31 -0.1000000E+01  0.2793475E-16
  0.2708947E-01 -0.4692038E-01  0.3571429E-01  -0.3732495E-31 -0.1000000E+01  0.2793475E-16
 -0.2708947E-01 -0.4692038E-01  0.3571429E-01  -0.3732495E-31 -0.1000000E+01  0.2793475E-16
           6
 -0.5417897E-01  0.3813147E-11 -0.3571429E-01   0.0000000E+00 -0.3411994E-15 -0.1000000E+01
 -0.2708947E-01  0.4692038E-01 -0.3571429E-01   0.0000000E+00 -0.3411994E-15 -0.1000000E+01
  0.2708947E-01  0.4692038E-01 -0.3571429E-01   0.0000000E+00 -0.3411994E-15 -0.1000000E+01
  0.5417897E-01 -0.3813153E-11 -0.3571429E-01   0.0000000E+00 -0.3411994E-15 -0.1000000E+01
  0.2708947E-01 -0.4692038E-01 -0.3571429E-01   0.0000000E+00 -0.3411994E-15 -0.1000000E+01
 -0.2708947E-01 -0.4692038E-01 -0.3571429E-01   0.0000000E+00 -0.3411994E-15 -0.1000000E+01
           6
 -0.2708947E-01 -0.4692038E-01  0.3571429E-01  -0.0000000E+00 -0.3411994E-15  0.1000000E+01
  0.2708947E-01 -0.4692038E-01  0.3571429E-01  -0.0000000E+00 -0.3411994E-15  0.1000000E+01
  0.5417897E-01 -0.3813144E-11  0.3571429E-01  -0.0000000E+00 -0.3411994E-15  0.1000000E+01
  0.2708947E-01  0.4692038E-01  0.3571429E-01  -0.0000000E+00 -0.3411994E-15  0.1000000E+01
 -0.2708947E-01  0.4692038E-01  0.3571429E-01  -0.0000000E+00 -0.3411994E-15  0.1000000E+01
 -0.5417897E-01  0.3813147E-11  0.3571429E-01  -0.0000000E+00 -0.3411994E-15  0.1000000E+01
           4
 -0.2708947E-01  0.4692038E-01  0.3571429E-01  -0.1280737E-15  0.1000000E+01  0.1120644E-15
  0.2708947E-01  0.4692038E-01  0.3571429E-01  -0.1280737E-15  0.1000000E+01  0.1120644E-15
  0.2708947E-01  0.4692038E-01 -0.3571429E-01  -0.1280737E-15  0.1000000E+01  0.1120644E-15
 -0.2708947E-01  0.4692038E-01 -0.3571429E-01  -0.1280737E-15  0.1000000E+01  0.1120644E-15
           4
  0.2708947E-01 -0.4692038E-01 -0.3571429E-01   0.8660253E+00 -0.5000002E+00 -0.4353846E-16
  0.5417897E-01 -0.3813147E-11 -0.3571429E-01   0.8660253E+00 -0.5000002E+00 -0.4353846E-16
  0.5417897E-01 -0.3813153E-11  0.3571429E-01   0.8660253E+00 -0.5000002E+00 -0.4353846E-16
  0.2708947E-01 -0.4692038E-01  0.3571429E-01   0.8660253E+00 -0.5000002E+00 -0.4353846E-16
           4
  0.2708947E-01  0.4692038E-01  0.3571429E-01   0.8660253E+00  0.5000002E+00 -0.1712065E-15
  0.5417897E-01 -0.3813134E-11  0.3571429E-01   0.8660253E+00  0.5000002E+00 -0.1712065E-15
  0.5417897E-01 -0.3813147E-11 -0.3571429E-01   0.8660253E+00  0.5000002E+00 -0.1712065E-15
  0.2708947E-01  0.4692038E-01 -0.3571429E-01   0.8660253E+00  0.5000002E+00 -0.1712065E-15
 BRILLOUIN-ZONE-PRIMCELL_END
 BRILLOUIN-ZONE-CONVCELL
           4
 -0.5417897E-01  0.3813147E-11 -0.3571429E-01  -0.8660253E+00 -0.5000002E+00 -0.3418542E-26
 -0.2708947E-01 -0.4692038E-01 -0.3571429E-01  -0.8660253E+00 -0.5000002E+00 -0.3418542E-26
 -0.2708947E-01 -0.4692038E-01  0.3571429E-01  -0.8660253E+00 -0.5000002E+00 -0.3418542E-26
 -0.5417897E-01  0.3813141E-11  0.3571429E-01  -0.8660253E+00 -0.5000002E+00 -0.3418542E-26
           4
 -0.5417897E-01  0.3813147E-11  0.3571429E-01  -0.8660253E+00  0.5000002E+00  0.5603216E-16
 -0.2708947E-01  0.4692038E-01  0.3571429E-01  -0.8660253E+00  0.5000002E+00  0.5603216E-16
 -0.2708947E-01  0.4692038E-01 -0.3571429E-01  -0.8660253E+00  0.5000002E+00  0.5603216E-16
 -0.5417897E-01  0.3813147E-11 -0.3571429E-01  -0.8660253E+00  0.5000002E+00  0.5603216E-16
           4
 -0.2708947E-01 -0.4692038E-01 -0.3571429E-01  -0.3732495E-31 -0.1000000E+01  0.2793475E-16
  0.2708947E-01 -0.4692038E-01 -0.3571429E-01  -0.3732495E-31 -0.1000000E+01  0.2793475E-16
  0.2708947E-01 -0.4692038E-01  0.3571429E-01  -0.3732495E-31 -0.1000000E+01  0.2793475E-16
 -0.2708947E-01 -0.4692038E-01  0.3571429E-01  -0.3732495E-31 -0.1000000E+01  0.2793475E-16
           6
 -0.5417897E-01  0.3813147E-11 -0.3571429E-01   0.0000000E+00 -0.3411994E-15 -0.1000000E+01
 -0.2708947E-01  0.4692038E-01 -0.3571429E-01   0.0000000E+00 -0.3411994E-15 -0.1000000E+01
  0.2708947E-01  0.4692038E-01 -0.3571429E-01   0.0000000E+00 -0.3411994E-15 -0.1000000E+01
  0.5417897E-01 -0.3813153E-11 -0.3571429E-01   0.0000000E+00 -0.3411994E-15 -0.1000000E+01
  0.2708947E-01 -0.4692038E-01 -0.3571429E-01   0.0000000E+00 -0.3411994E-15 -0.1000000E+01
 -0.2708947E-01 -0.4692038E-01 -0.3571429E-01   0.0000000E+00 -0.3411994E-15 -0.1000000E+01
           6
 -0.2708947E-01 -0.4692038E-01  0.3571429E-01  -0.0000000E+00 -0.3411994E-15  0.1000000E+01
  0.2708947E-01 -0.4692038E-01  0.3571429E-01  -0.0000000E+00 -0.3411994E-15  0.1000000E+01
  0.5417897E-01 -0.3813144E-11  0.3571429E-01  -0.0000000E+00 -0.3411994E-15  0.1000000E+01
  0.2708947E-01  0.4692038E-01  0.3571429E-01  -0.0000000E+00 -0.3411994E-15  0.1000000E+01
 -0.2708947E-01  0.4692038E-01  0.3571429E-01  -0.0000000E+00 -0.3411994E-15  0.1000000E+01
 -0.5417897E-01  0.3813147E-11  0.3571429E-01  -0.0000000E+00 -0.3411994E-15  0.1000000E+01
           4
 -0.2708947E-01  0.4692038E-01  0.3571429E-01  -0.1280737E-15  0.1000000E+01  0.1120644E-15
  0.2708947E-01  0.4692038E-01  0.3571429E-01  -0.1280737E-15  0.1000000E+01  0.1120644E-15
  0.2708947E-01  0.4692038E-01 -0.3571429E-01  -0.1280737E-15  0.1000000E+01  0.1120644E-15
 -0.2708947E-01  0.4692038E-01 -0.3571429E-01  -0.1280737E-15  0.1000000E+01  0.1120644E-15
           4
  0.2708947E-01 -0.4692038E-01 -0.3571429E-01   0.8660253E+00 -0.5000002E+00 -0.4353846E-16
  0.5417897E-01 -0.3813147E-11 -0.3571429E-01   0.8660253E+00 -0.5000002E+00 -0.4353846E-16
  0.5417897E-01 -0.3813153E-11  0.3571429E-01   0.8660253E+00 -0.5000002E+00 -0.4353846E-16
  0.2708947E-01 -0.4692038E-01  0.3571429E-01   0.8660253E+00 -0.5000002E+00 -0.4353846E-16
           4
  0.2708947E-01  0.4692038E-01  0.3571429E-01   0.8660253E+00  0.5000002E+00 -0.1712065E-15
  0.5417897E-01 -0.3813134E-11  0.3571429E-01   0.8660253E+00  0.5000002E+00 -0.1712065E-15
  0.5417897E-01 -0.3813147E-11 -0.3571429E-01   0.8660253E+00  0.5000002E+00 -0.1712065E-15
  0.2708947E-01  0.4692038E-01 -0.3571429E-01   0.8660253E+00  0.5000002E+00 -0.1712065E-15
 BRILLOUIN-ZONE-CONVCELL_END
 ATOMS
    6    1.2305023000    0.7104376070    6.9999711790   -0.0098555500   -0.0010065500    0.0023238800
    6    0.0000123050    1.4208539020    6.9999711790   -0.0015856500   -0.0069495100    0.0000855400
    6   -0.0045624230    2.8390835280    7.0085674160    0.0005392300    0.0002230200   -0.0004438600
    6   -1.2304838430    3.5521347540    6.9999711790   -0.0095772000   -0.0029129600   -0.0079684000
    6   -1.2374454140    4.9710232830    6.9789872400    0.0001293100   -0.0001390600    0.0000202800
    6   -2.4609799900    5.6834156060    6.9999711790   -0.0364104700   -0.0607445800    0.0092795100
    6   -2.4521835250    7.1078530470    7.4014123120   -0.0000873400   -0.0001533600   -0.0001692000
    6   -3.6914761380    7.8146964590    6.9999711790   -0.0695023100    0.0069228500    0.0140550400
    6   -3.6914822900    9.2355397040    6.9999711790   -0.0107202900   -0.0228282800   -0.0112293100
    6   -4.9219784380    9.9459666550    6.9999711790   -0.0045971200    0.0014209400   -0.0056091800
    6    3.6914822900    0.7104376070    6.9999711790    0.0018837700   -0.0239771700   -0.0031333800
    6    2.4567128720    1.4295272970    7.0092981460    0.0000548300   -0.0005348500   -0.0002426500
    6    2.4477710190    2.8355094410    7.0419602260    0.0002406800   -0.0004713500   -0.0001173800
    6    1.2181346940    3.5497354340    7.0515744590    0.0003095000   -0.0003905000    0.0000368500
    6    1.1957551140    4.9634499110    7.1261546200    0.0005924800   -0.0002194200   -0.0003314600
    6    0.0013577840    5.6695401850    7.0539427130    0.0000607000   -0.0007121400    0.0002065700
    6    0.0022914060    7.1180155830    7.0570202350    0.0002916500   -0.0007241800    0.0009562300
    6   -1.1880639000    7.8284492570    7.0882454810   -0.0004305100   -0.0005740700   -0.0002641200
    6   -1.2228107840    9.2399685150    7.0185080590    0.0000957900   -0.0003610000   -0.0000478500
    6   -2.4609984480    9.9459666550    6.9999711790    0.0136293300    0.0273588700    0.0082853100
    6    6.1524745850    0.7104376070    6.9999711790   -0.0031801400    0.0049952500   -0.0050581100
    6    4.9262701530    1.4175461280    6.9836382490    0.0001010700   -0.0000394500   -0.0003520700
    6    4.9191029730    2.8354050080    6.9671881530    0.0004653400    0.0002900500    0.0002641300
    6    3.6934532830    3.5553878290    7.0247703700    0.0001334100   -0.0004462200    0.0001015200
    6    3.7044958420    4.9515929190    7.0941144620   -0.0001030600   -0.0002894000    0.0006574300
    6    2.4580653040    5.6839130660    7.4804513190   -0.0000058900    0.0002086700    0.0003229600
    6    2.4635268400    7.1305194150    7.1026496870   -0.0004075700    0.0006609300    0.0002843900
    6    1.2484445180    7.8190352350    7.0243785520   -0.0002943800   -0.0003081300    0.0003410500
    6    1.2330116690    9.2402051720    6.9943118200   -0.0000549100   -0.0000218900    0.0000716200
    6   -0.0000061520    9.9459666550    6.9999711790    0.0088780500    0.0109839500   -0.0043319000
    6    8.6134668800    0.7104376070    6.9999711790    0.0088137200    0.0037921200   -0.0003650900
    6    7.3847495410    1.4289908570    6.9984407410    0.0000253400   -0.0002473600    0.0001517600
    6    7.3866901720    2.8387363650    6.9936811760   -0.0001014700   -0.0001170400    0.0003675900
    6    6.1424316340    3.5502318710    6.9875922270    0.0000557300    0.0000402000   -0.0007558800
    6    6.1174740970    4.9468324290    7.0402006090    0.0000260800    0.0008080300    0.0007454100
    6    4.9187514590    5.6625470290    7.0394054370   -0.0001060000   -0.0004122200    0.0006085500
    6    4.9247518020    7.1074153270    7.0448689780   -0.0007707100    0.0002002400    0.0005686900
    6    3.6930424100    7.8152870230    7.0444515260    0.0001314300    0.0001905300    0.0002727200
    6    3.6926129870    9.2402259830    6.9992753930   -0.0001587200    0.0005744600    0.0000625400
    6    2.4609861430    9.9459666550    6.9999711790    0.0081432100    0.0093123400   -0.0018382500
    6   11.0744468710    0.7104376070    6.9999711790    0.0017211300   -0.0002766400   -0.0000682000
    6    9.8439568750    1.4208539020    6.9999711790   -0.0047712600   -0.0030058500    0.0016936100
    6    9.8439507230    2.8416971470    6.9999711790   -0.0004397500    0.0024761400   -0.0110225900
    6    8.6164911970    3.5557991640    6.9739937900    0.0000505500   -0.0000473800   -0.0002760900
    6    8.6134545760    4.9729779990    6.9999711790    0.0686045200    0.0015049300    0.0101545000
    6    7.3694793880    5.6740623250    7.3963812030    0.0000371300    0.0005962400    0.0001443900
    6    7.3829584280    7.1042588520    6.9999711790    0.0376767500    0.0528941900    0.0115195800
    6    6.1511163090    7.8128023770    6.9849763270   -0.0001272600   -0.0001319400    0.0000230000
    6    6.1524622800    9.2355397040    6.9999711790    0.0029419000    0.0001374600   -0.0089979300
    6    4.9219661330    9.9459666550    6.9999711790   -0.0024672400    0.0028985400   -0.0014721200
    8    2.4711395560    5.7558677100    8.9832594710   -0.0000420300    0.0003664400   -0.0003784500
    1    2.8573370540    4.9151395140    9.3064390310   -0.0003768300   -0.0002551000    0.0004347900
    8   -2.5594612730    7.1293431350    8.9153874230   -0.0001674700    0.0002257400    0.0002384400
    1   -1.7131539220    6.7762463410    9.2645229240    0.0000748900   -0.0002999400   -0.0001903400
    8    7.3258763480    5.6544967530    8.8797421670    0.0000326100   -0.0000565000   -0.0000072100
    1    8.1340618690    6.1511936620    9.1712361190    0.0006010100   -0.0004281000    0.0003931800
 FRAMES
1      0.0000000000    0.0000000000    0.0000000000     12.3048999510    0.0000000000    0.0000000000
1      0.0000000000    0.0000000000    0.0000000000     -6.1524499750   10.6563509800    0.0000000000
1      0.0000000000    0.0000000000    0.0000000000      0.0000000000    0.0000000000   13.9999983580
1      0.0000000000    0.0000000000   13.9999983580     12.3048999510    0.0000000000   13.9999983580