 INFO
nunit      1    1    1
unit   cell
celltype   primcell
shape   parapipedal
 END_INFO
 DIM-GROUP
           3           9
 PRIMVEC
   12.3048999510    0.0000000000    0.0000000000
   -6.1524499750   10.6563509800    0.0000000000
    0.0000000000    0.0000000000   13.9999983580
 CONVVEC
   12.3048999510    0.0000000000    0.0000000000
   -6.1524499750   10.6563509800    0.0000000000
    0.0000000000    0.0000000000   13.9999983580
 PRIMCOORD
          55           1
  6      1.2305023000     0.7104376070     6.9999711790     0.0733655600     0.0047161800     0.1067878200
  6      0.0000123050     1.4208539020     6.9999711790    -0.0333533600     0.0681099900     0.1106141000
  6     -0.0307265530     2.8818150050     7.1041044550     0.0001129200    -0.0002326500    -0.0002634500
  6     -1.2304838430     3.5521347540     6.9999711790    -0.0326186700     0.0397527100    -0.0341165900
  6     -1.2389549110     4.9766616330     7.0385830070     0.0002375200     0.0000866600     0.0002660300
  6     -2.4609799900     5.6834156060     6.9999711790    -0.0369275800    -0.0061139400    -0.0019518100
  6     -2.4643847190     7.1154866600     7.0071991960    -0.0003099700    -0.0001360600    -0.0004506700
  6     -3.6914761380     7.8146964590     6.9999711790    -0.0181978200     0.0143844200    -0.0088803300
  6     -3.6914822900     9.2355397040     6.9999711790    -0.0006214100    -0.0039886200    -0.0002160300
  6     -4.9219784380     9.9459666550     6.9999711790    -0.0257574900    -0.1035787200    -0.0586862100
  6      3.6914822900     0.7104376070     6.9999711790     0.0513291600     0.0034206100    -0.0325676400
  6      2.5102802420     1.4118041550     7.0785289080     0.0002259700     0.0001889600     0.0005411100
  6      2.6782717140     2.6772445240     7.6460533660    -0.0002034900    -0.0004272600     0.0006690400
  6      0.9699311670     3.6597360430     7.6916077080     0.0001134400    -0.0003400700    -0.0002810200
  6      1.1251483800     5.0338311660     7.5303804510     0.0002933600    -0.0007844600    -0.0004817500
  6     -0.0376648990     5.6938764880     7.2030048530    -0.0002442400     0.0002923600    -0.0001871500
  6     -0.0488165530     7.1361860890     7.3750141950    -0.0007092800    -0.0000043400     0.0005187000
  6     -1.2792703530     7.8427781490     7.0619637880    -0.0005289300     0.0004488800     0.0001514400
  6     -1.2504275940     9.2417537100     7.0153906790    -0.0001860700    -0.0003606300     0.0003089100
  6     -2.4609984480     9.9459666550     6.9999711790    -0.0080941700    -0.0164363400    -0.0205292700
  6      6.1524745850     0.7104376070     6.9999711790     0.0297424600    -0.0114619900    -0.0014188400
  6      4.9231447020     1.4230382300     7.0260966740     0.0001260000     0.0000920900     0.0001140000
  6      4.9411146920     2.8192137060     7.1480307520     0.0000541900    -0.0000754800    -0.0001052200
  6      3.7786298490     3.4966187250     7.4537354440     0.0006037600     0.0004966800     0.0000878000
  6      3.7558507970     4.9482753410     7.7325090810    -0.0004666200     0.0000206000    -0.0000262000
  6      2.4272577600     5.7221095200     7.7727476950    -0.0001314000    -0.0000636200    -0.0001219300
  6      2.4959818500     7.1354665400     7.3862489140    -0.0003271600     0.0001932100     0.0002240400
  6      1.2335060920     7.8679089370     7.4274315050    -0.0007145000    -0.0001812300     0.0005460200
  6      1.2298028530     9.2796095980     7.0776305840    -0.0001398700     0.0000112500     0.0001951000
  6     -0.0000061520     9.9459666550     6.9999711790     0.0122493000     0.0147843700     0.0049487600
  6      8.6134668800     0.7104376070     6.9999711790    -0.0042536000    -0.0146780000    -0.0076850900
  6      7.3868778830     1.3834915200     7.0520475050    -0.0000077800     0.0000023100     0.0001938900
  6      7.4340180100     2.8163599140     7.3213719420     0.0000458800     0.0001273100     0.0000831200
  6      6.1747667330     3.5595534500     7.3790165010     0.0000627400     0.0002887700     0.0000900400
  6      6.1633406730     5.0117597210     7.1799384140    -0.0003223100     0.0001868300     0.0006132500
  6      4.9628448010     5.6998736900     7.3245867610    -0.0003709000     0.0003233500     0.0000658800
  6      4.9379345090     7.0978820910     7.1963894200    -0.0001612800     0.0004868600     0.0003041900
  6      3.6833254090     7.8068580940     7.2097941670    -0.0000905100    -0.0001275000     0.0005886500
  6      3.7026933890     9.2439210200     7.0482114780    -0.0001365900     0.0003059300     0.0003905200
  6      2.4609861430     9.9459666550     6.9999711790     0.0038239000     0.0096648900     0.0064132600
  6     11.0744468710     0.7104376070     6.9999711790    -0.1121583200    -0.0099956500    -0.0598706800
  6      9.8439568750     1.4208539020     6.9999711790     0.0443583200    -0.0436776700     0.0003897300
  6      9.8439507230     2.8416971470     6.9999711790     0.0003965500     0.0323423100    -0.0169336700
  6      8.6608311110     3.5568511700     7.0621929400     0.0001625700     0.0000941500    -0.0000698400
  6      8.6134545760     4.9729779990     6.9999711790     0.0427161400     0.0098522800     0.0062691400
  6      7.3776282780     5.6916122370     7.0286658420    -0.0002575100     0.0000843000    -0.0000304200
  6      7.3829584280     7.1042588520     6.9999711790     0.0014622100     0.0069805400     0.0043115900
  6      6.1524677010     7.8116702150     7.0439350940     0.0001663200    -0.0000143500    -0.0001707100
  6      6.1524622800     9.2355397040     6.9999711790     0.0569848400     0.0024691700    -0.0014312800
  6      4.9219661330     9.9459666550     6.9999711790    -0.0413260300     0.0020533000     0.0010517200
  8      3.1731795400     5.4034825160     8.9800382110    -0.0001024300    -0.0001235600     0.0002381800
  8      0.5612836610     0.9600864250     8.3677673790    -0.0000306100     0.0004460900    -0.0002821000
  8      1.8069332010     3.0971700970     8.6153542840     0.0000585500     0.0001786400     0.0004806300
  8      6.8288446230     3.1616857450     8.6383780650     0.0004016600    -0.0002102700    -0.0002985400
  8      0.4958672940     7.5696377790     8.6859518800    -0.0003434200     0.0001264300    -0.0004002300
 CONVCOORD
          55           1
  6      1.2305023000     0.7104376070     6.9999711790
  6      0.0000123050     1.4208539020     6.9999711790
  6     -0.0307265530     2.8818150050     7.1041044550
  6     -1.2304838430     3.5521347540     6.9999711790
  6     -1.2389549110     4.9766616330     7.0385830070
  6     -2.4609799900     5.6834156060     6.9999711790
  6     -2.4643847190     7.1154866600     7.0071991960
  6     -3.6914761380     7.8146964590     6.9999711790
  6     -3.6914822900     9.2355397040     6.9999711790
  6     -4.9219784380     9.9459666550     6.9999711790
  6      3.6914822900     0.7104376070     6.9999711790
  6      2.5102802420     1.4118041550     7.0785289080
  6      2.6782717140     2.6772445240     7.6460533660
  6      0.9699311670     3.6597360430     7.6916077080
  6      1.1251483800     5.0338311660     7.5303804510
  6     -0.0376648990     5.6938764880     7.2030048530
  6     -0.0488165530     7.1361860890     7.3750141950
  6     -1.2792703530     7.8427781490     7.0619637880
  6     -1.2504275940     9.2417537100     7.0153906790
  6     -2.4609984480     9.9459666550     6.9999711790
  6      6.1524745850     0.7104376070     6.9999711790
  6      4.9231447020     1.4230382300     7.0260966740
  6      4.9411146920     2.8192137060     7.1480307520
  6      3.7786298490     3.4966187250     7.4537354440
  6      3.7558507970     4.9482753410     7.7325090810
  6      2.4272577600     5.7221095200     7.7727476950
  6      2.4959818500     7.1354665400     7.3862489140
  6      1.2335060920     7.8679089370     7.4274315050
  6      1.2298028530     9.2796095980     7.0776305840
  6     -0.0000061520     9.9459666550     6.9999711790
  6      8.6134668800     0.7104376070     6.9999711790
  6      7.3868778830     1.3834915200     7.0520475050
  6      7.4340180100     2.8163599140     7.3213719420
  6      6.1747667330     3.5595534500     7.3790165010
  6      6.1633406730     5.0117597210     7.1799384140
  6      4.9628448010     5.6998736900     7.3245867610
  6      4.9379345090     7.0978820910     7.1963894200
  6      3.6833254090     7.8068580940     7.2097941670
  6      3.7026933890     9.2439210200     7.0482114780
  6      2.4609861430     9.9459666550     6.9999711790
  6     11.0744468710     0.7104376070     6.9999711790
  6      9.8439568750     1.4208539020     6.9999711790
  6      9.8439507230     2.8416971470     6.9999711790
  6      8.6608311110     3.5568511700     7.0621929400
  6      8.6134545760     4.9729779990     6.9999711790
  6      7.3776282780     5.6916122370     7.0286658420
  6      7.3829584280     7.1042588520     6.9999711790
  6      6.1524677010     7.8116702150     7.0439350940
  6      6.1524622800     9.2355397040     6.9999711790
  6      4.9219661330     9.9459666550     6.9999711790
  8      3.1731795400     5.4034825160     8.9800382110
  8      0.5612836610     0.9600864250     8.3677673790
  8      1.8069332010     3.0971700970     8.6153542840
  8      6.8288446230     3.1616857450     8.6383780650
  8      0.4958672940     7.5696377790     8.6859518800
 RECIP-PRIMVEC
    0.0812684381    0.0469203765   -0.0000000000

    0.0000000000    0.0938407530    0.0000000000

    0.0000000000   -0.0000000000    0.0714285798

 RECIP-CONVVEC
    0.0812684381    0.0469203765   -0.0000000000

    0.0000000000    0.0938407530    0.0000000000

    0.0000000000   -0.0000000000    0.0714285798

 WIGNER-SEITZ-PRIMCELL
           4
  0.6152450E+01 -0.3552115E+01 -0.6999999E+01   0.1000000E+01 -0.0000000E+00 -0.0000000E+00
  0.6152450E+01  0.3552115E+01 -0.6999999E+01   0.1000000E+01 -0.0000000E+00 -0.0000000E+00
  0.6152450E+01  0.3552115E+01  0.6999999E+01   0.1000000E+01 -0.0000000E+00 -0.0000000E+00
  0.6152450E+01 -0.3552115E+01  0.6999999E+01   0.1000000E+01 -0.0000000E+00 -0.0000000E+00
           4
  0.6152450E+01 -0.3552115E+01  0.6999999E+01   0.5000002E+00 -0.8660253E+00 -0.1435454E-15
 -0.4999987E-09 -0.7104236E+01  0.6999999E+01   0.5000002E+00 -0.8660253E+00 -0.1435454E-15
 -0.5000007E-09 -0.7104236E+01 -0.6999999E+01   0.5000002E+00 -0.8660253E+00 -0.1435454E-15
  0.6152450E+01 -0.3552115E+01 -0.6999999E+01   0.5000002E+00 -0.8660253E+00 -0.1435454E-15
           4
  0.6152450E+01  0.3552115E+01 -0.6999999E+01   0.5000002E+00  0.8660253E+00 -0.7210489E-16
  0.4999987E-09  0.7104236E+01 -0.6999999E+01   0.5000002E+00  0.8660253E+00 -0.7210489E-16
  0.5000007E-09  0.7104236E+01  0.6999999E+01   0.5000002E+00  0.8660253E+00 -0.7210489E-16
  0.6152450E+01  0.3552115E+01  0.6999999E+01   0.5000002E+00  0.8660253E+00 -0.7210489E-16
           6
 -0.6152450E+01 -0.3552115E+01 -0.6999999E+01  -0.1625643E-15  0.0000000E+00 -0.1000000E+01
 -0.6152450E+01  0.3552115E+01 -0.6999999E+01  -0.1625643E-15  0.0000000E+00 -0.1000000E+01
  0.4999987E-09  0.7104236E+01 -0.6999999E+01  -0.1625643E-15  0.0000000E+00 -0.1000000E+01
  0.6152450E+01  0.3552115E+01 -0.6999999E+01  -0.1625643E-15  0.0000000E+00 -0.1000000E+01
  0.6152450E+01 -0.3552115E+01 -0.6999999E+01  -0.1625643E-15  0.0000000E+00 -0.1000000E+01
 -0.5000007E-09 -0.7104236E+01 -0.6999999E+01  -0.1625643E-15  0.0000000E+00 -0.1000000E+01
           6
 -0.5000007E-09 -0.7104236E+01  0.6999999E+01  -0.3251285E-15 -0.0000000E+00  0.1000000E+01
  0.6152450E+01 -0.3552115E+01  0.6999999E+01  -0.3251285E-15 -0.0000000E+00  0.1000000E+01
  0.6152450E+01  0.3552115E+01  0.6999999E+01  -0.3251285E-15 -0.0000000E+00  0.1000000E+01
  0.4999987E-09  0.7104236E+01  0.6999999E+01  -0.3251285E-15 -0.0000000E+00  0.1000000E+01
 -0.6152450E+01  0.3552115E+01  0.6999999E+01  -0.3251285E-15 -0.0000000E+00  0.1000000E+01
 -0.6152450E+01 -0.3552115E+01  0.6999999E+01  -0.3251285E-15 -0.0000000E+00  0.1000000E+01
           4
 -0.6152450E+01 -0.3552115E+01  0.6999999E+01  -0.5000002E+00 -0.8660253E+00  0.0000000E+00
 -0.6152450E+01 -0.3552115E+01 -0.6999999E+01  -0.5000002E+00 -0.8660253E+00  0.0000000E+00
 -0.5000007E-09 -0.7104236E+01 -0.6999999E+01  -0.5000002E+00 -0.8660253E+00  0.0000000E+00
 -0.4999997E-09 -0.7104236E+01  0.6999999E+01  -0.5000002E+00 -0.8660253E+00  0.0000000E+00
           4
  0.4999997E-09  0.7104236E+01  0.6999999E+01  -0.5000002E+00  0.8660253E+00  0.1428811E-15
  0.4999987E-09  0.7104236E+01 -0.6999999E+01  -0.5000002E+00  0.8660253E+00  0.1428811E-15
 -0.6152450E+01  0.3552115E+01 -0.6999999E+01  -0.5000002E+00  0.8660253E+00  0.1428811E-15
 -0.6152450E+01  0.3552115E+01  0.6999999E+01  -0.5000002E+00  0.8660253E+00  0.1428811E-15
           4
 -0.6152450E+01 -0.3552115E+01  0.6999999E+01  -0.1000000E+01  0.0000000E+00  0.6344132E-16
 -0.6152450E+01  0.3552115E+01  0.6999999E+01  -0.1000000E+01  0.0000000E+00  0.6344132E-16
 -0.6152450E+01  0.3552115E+01 -0.6999999E+01  -0.1000000E+01  0.0000000E+00  0.6344132E-16
 -0.6152450E+01 -0.3552115E+01 -0.6999999E+01  -0.1000000E+01  0.0000000E+00  0.6344132E-16
 WIGNER-SEITZ-PRIMCELL_END
 WIGNER-SEITZ-CONVCELL
           4
  0.6152450E+01 -0.3552115E+01 -0.6999999E+01   0.1000000E+01 -0.0000000E+00 -0.0000000E+00
  0.6152450E+01  0.3552115E+01 -0.6999999E+01   0.1000000E+01 -0.0000000E+00 -0.0000000E+00
  0.6152450E+01  0.3552115E+01  0.6999999E+01   0.1000000E+01 -0.0000000E+00 -0.0000000E+00
  0.6152450E+01 -0.3552115E+01  0.6999999E+01   0.1000000E+01 -0.0000000E+00 -0.0000000E+00
           4
  0.6152450E+01 -0.3552115E+01  0.6999999E+01   0.5000002E+00 -0.8660253E+00 -0.1435454E-15
 -0.4999987E-09 -0.7104236E+01  0.6999999E+01   0.5000002E+00 -0.8660253E+00 -0.1435454E-15
 -0.5000007E-09 -0.7104236E+01 -0.6999999E+01   0.5000002E+00 -0.8660253E+00 -0.1435454E-15
  0.6152450E+01 -0.3552115E+01 -0.6999999E+01   0.5000002E+00 -0.8660253E+00 -0.1435454E-15
           4
  0.6152450E+01  0.3552115E+01 -0.6999999E+01   0.5000002E+00  0.8660253E+00 -0.7210489E-16
  0.4999987E-09  0.7104236E+01 -0.6999999E+01   0.5000002E+00  0.8660253E+00 -0.7210489E-16
  0.5000007E-09  0.7104236E+01  0.6999999E+01   0.5000002E+00  0.8660253E+00 -0.7210489E-16
  0.6152450E+01  0.3552115E+01  0.6999999E+01   0.5000002E+00  0.8660253E+00 -0.7210489E-16
           6
 -0.6152450E+01 -0.3552115E+01 -0.6999999E+01  -0.1625643E-15  0.0000000E+00 -0.1000000E+01
 -0.6152450E+01  0.3552115E+01 -0.6999999E+01  -0.1625643E-15  0.0000000E+00 -0.1000000E+01
  0.4999987E-09  0.7104236E+01 -0.6999999E+01  -0.1625643E-15  0.0000000E+00 -0.1000000E+01
  0.6152450E+01  0.3552115E+01 -0.6999999E+01  -0.1625643E-15  0.0000000E+00 -0.1000000E+01
  0.6152450E+01 -0.3552115E+01 -0.6999999E+01  -0.1625643E-15  0.0000000E+00 -0.1000000E+01
 -0.5000007E-09 -0.7104236E+01 -0.6999999E+01  -0.1625643E-15  0.0000000E+00 -0.1000000E+01
           6
 -0.5000007E-09 -0.7104236E+01  0.6999999E+01  -0.3251285E-15 -0.0000000E+00  0.1000000E+01
  0.6152450E+01 -0.3552115E+01  0.6999999E+01  -0.3251285E-15 -0.0000000E+00  0.1000000E+01
  0.6152450E+01  0.3552115E+01  0.6999999E+01  -0.3251285E-15 -0.0000000E+00  0.1000000E+01
  0.4999987E-09  0.7104236E+01  0.6999999E+01  -0.3251285E-15 -0.0000000E+00  0.1000000E+01
 -0.6152450E+01  0.3552115E+01  0.6999999E+01  -0.3251285E-15 -0.0000000E+00  0.1000000E+01
 -0.6152450E+01 -0.3552115E+01  0.6999999E+01  -0.3251285E-15 -0.0000000E+00  0.1000000E+01
           4
 -0.6152450E+01 -0.3552115E+01  0.6999999E+01  -0.5000002E+00 -0.8660253E+00  0.0000000E+00
 -0.6152450E+01 -0.3552115E+01 -0.6999999E+01  -0.5000002E+00 -0.8660253E+00  0.0000000E+00
 -0.5000007E-09 -0.7104236E+01 -0.6999999E+01  -0.5000002E+00 -0.8660253E+00  0.0000000E+00
 -0.4999997E-09 -0.7104236E+01  0.6999999E+01  -0.5000002E+00 -0.8660253E+00  0.0000000E+00
           4
  0.4999997E-09  0.7104236E+01  0.6999999E+01  -0.5000002E+00  0.8660253E+00  0.1428811E-15
  0.4999987E-09  0.7104236E+01 -0.6999999E+01  -0.5000002E+00  0.8660253E+00  0.1428811E-15
 -0.6152450E+01  0.3552115E+01 -0.6999999E+01  -0.5000002E+00  0.8660253E+00  0.1428811E-15
 -0.6152450E+01  0.3552115E+01  0.6999999E+01  -0.5000002E+00  0.8660253E+00  0.1428811E-15
           4
 -0.6152450E+01 -0.3552115E+01  0.6999999E+01  -0.1000000E+01  0.0000000E+00  0.6344132E-16
 -0.6152450E+01  0.3552115E+01  0.6999999E+01  -0.1000000E+01  0.0000000E+00  0.6344132E-16
 -0.6152450E+01  0.3552115E+01 -0.6999999E+01  -0.1000000E+01  0.0000000E+00  0.6344132E-16
 -0.6152450E+01 -0.3552115E+01 -0.6999999E+01  -0.1000000E+01  0.0000000E+00  0.6344132E-16
 WIGNER-SEITZ-CONVCELL_END
 BRILLOUIN-ZONE-PRIMCELL
           4
 -0.5417897E-01  0.3813147E-11 -0.3571429E-01  -0.8660253E+00 -0.5000002E+00 -0.3418542E-26
 -0.2708947E-01 -0.4692038E-01 -0.3571429E-01  -0.8660253E+00 -0.5000002E+00 -0.3418542E-26
 -0.2708947E-01 -0.4692038E-01  0.3571429E-01  -0.8660253E+00 -0.5000002E+00 -0.3418542E-26
 -0.5417897E-01  0.3813141E-11  0.3571429E-01  -0.8660253E+00 -0.5000002E+00 -0.3418542E-26
           4
 -0.5417897E-01  0.3813147E-11  0.3571429E-01  -0.8660253E+00  0.5000002E+00  0.5603216E-16
 -0.2708947E-01  0.4692038E-01  0.3571429E-01  -0.8660253E+00  0.5000002E+00  0.5603216E-16
 -0.2708947E-01  0.4692038E-01 -0.3571429E-01  -0.8660253E+00  0.5000002E+00  0.5603216E-16
 -0.5417897E-01  0.3813147E-11 -0.3571429E-01  -0.8660253E+00  0.5000002E+00  0.5603216E-16
           4
 -0.2708947E-01 -0.4692038E-01 -0.3571429E-01  -0.3732495E-31 -0.1000000E+01  0.2793475E-16
  0.2708947E-01 -0.4692038E-01 -0.3571429E-01  -0.3732495E-31 -0.1000000E+01  0.2793475E-16
  0.2708947E-01 -0.4692038E-01  0.3571429E-01  -0.3732495E-31 -0.1000000E+01  0.2793475E-16
 -0.2708947E-01 -0.4692038E-01  0.3571429E-01  -0.3732495E-31 -0.1000000E+01  0.2793475E-16
           6
 -0.5417897E-01  0.3813147E-11 -0.3571429E-01   0.0000000E+00 -0.3411994E-15 -0.1000000E+01
 -0.2708947E-01  0.4692038E-01 -0.3571429E-01   0.0000000E+00 -0.3411994E-15 -0.1000000E+01
  0.2708947E-01  0.4692038E-01 -0.3571429E-01   0.0000000E+00 -0.3411994E-15 -0.1000000E+01
  0.5417897E-01 -0.3813153E-11 -0.3571429E-01   0.0000000E+00 -0.3411994E-15 -0.1000000E+01
  0.2708947E-01 -0.4692038E-01 -0.3571429E-01   0.0000000E+00 -0.3411994E-15 -0.1000000E+01
 -0.2708947E-01 -0.4692038E-01 -0.3571429E-01   0.0000000E+00 -0.3411994E-15 -0.1000000E+01
           6
 -0.2708947E-01 -0.4692038E-01  0.3571429E-01  -0.0000000E+00 -0.3411994E-15  0.1000000E+01
  0.2708947E-01 -0.4692038E-01  0.3571429E-01  -0.0000000E+00 -0.3411994E-15  0.1000000E+01
  0.5417897E-01 -0.3813144E-11  0.3571429E-01  -0.0000000E+00 -0.3411994E-15  0.1000000E+01
  0.2708947E-01  0.4692038E-01  0.3571429E-01  -0.0000000E+00 -0.3411994E-15  0.1000000E+01
 -0.2708947E-01  0.4692038E-01  0.3571429E-01  -0.0000000E+00 -0.3411994E-15  0.1000000E+01
 -0.5417897E-01  0.3813147E-11  0.3571429E-01  -0.0000000E+00 -0.3411994E-15  0.1000000E+01
           4
 -0.2708947E-01  0.4692038E-01  0.3571429E-01  -0.1280737E-15  0.1000000E+01  0.1120644E-15
  0.2708947E-01  0.4692038E-01  0.3571429E-01  -0.1280737E-15  0.1000000E+01  0.1120644E-15
  0.2708947E-01  0.4692038E-01 -0.3571429E-01  -0.1280737E-15  0.1000000E+01  0.1120644E-15
 -0.2708947E-01  0.4692038E-01 -0.3571429E-01  -0.1280737E-15  0.1000000E+01  0.1120644E-15
           4
  0.2708947E-01 -0.4692038E-01 -0.3571429E-01   0.8660253E+00 -0.5000002E+00 -0.4353846E-16
  0.5417897E-01 -0.3813147E-11 -0.3571429E-01   0.8660253E+00 -0.5000002E+00 -0.4353846E-16
  0.5417897E-01 -0.3813153E-11  0.3571429E-01   0.8660253E+00 -0.5000002E+00 -0.4353846E-16
  0.2708947E-01 -0.4692038E-01  0.3571429E-01   0.8660253E+00 -0.5000002E+00 -0.4353846E-16
           4
  0.2708947E-01  0.4692038E-01  0.3571429E-01   0.8660253E+00  0.5000002E+00 -0.1712065E-15
  0.5417897E-01 -0.3813134E-11  0.3571429E-01   0.8660253E+00  0.5000002E+00 -0.1712065E-15
  0.5417897E-01 -0.3813147E-11 -0.3571429E-01   0.8660253E+00  0.5000002E+00 -0.1712065E-15
  0.2708947E-01  0.4692038E-01 -0.3571429E-01   0.8660253E+00  0.5000002E+00 -0.1712065E-15
 BRILLOUIN-ZONE-PRIMCELL_END
 BRILLOUIN-ZONE-CONVCELL
           4
 -0.5417897E-01  0.3813147E-11 -0.3571429E-01  -0.8660253E+00 -0.5000002E+00 -0.3418542E-26
 -0.2708947E-01 -0.4692038E-01 -0.3571429E-01  -0.8660253E+00 -0.5000002E+00 -0.3418542E-26
 -0.2708947E-01 -0.4692038E-01  0.3571429E-01  -0.8660253E+00 -0.5000002E+00 -0.3418542E-26
 -0.5417897E-01  0.3813141E-11  0.3571429E-01  -0.8660253E+00 -0.5000002E+00 -0.3418542E-26
           4
 -0.5417897E-01  0.3813147E-11  0.3571429E-01  -0.8660253E+00  0.5000002E+00  0.5603216E-16
 -0.2708947E-01  0.4692038E-01  0.3571429E-01  -0.8660253E+00  0.5000002E+00  0.5603216E-16
 -0.2708947E-01  0.4692038E-01 -0.3571429E-01  -0.8660253E+00  0.5000002E+00  0.5603216E-16
 -0.5417897E-01  0.3813147E-11 -0.3571429E-01  -0.8660253E+00  0.5000002E+00  0.5603216E-16
           4
 -0.2708947E-01 -0.4692038E-01 -0.3571429E-01  -0.3732495E-31 -0.1000000E+01  0.2793475E-16
  0.2708947E-01 -0.4692038E-01 -0.3571429E-01  -0.3732495E-31 -0.1000000E+01  0.2793475E-16
  0.2708947E-01 -0.4692038E-01  0.3571429E-01  -0.3732495E-31 -0.1000000E+01  0.2793475E-16
 -0.2708947E-01 -0.4692038E-01  0.3571429E-01  -0.3732495E-31 -0.1000000E+01  0.2793475E-16
           6
 -0.5417897E-01  0.3813147E-11 -0.3571429E-01   0.0000000E+00 -0.3411994E-15 -0.1000000E+01
 -0.2708947E-01  0.4692038E-01 -0.3571429E-01   0.0000000E+00 -0.3411994E-15 -0.1000000E+01
  0.2708947E-01  0.4692038E-01 -0.3571429E-01   0.0000000E+00 -0.3411994E-15 -0.1000000E+01
  0.5417897E-01 -0.3813153E-11 -0.3571429E-01   0.0000000E+00 -0.3411994E-15 -0.1000000E+01
  0.2708947E-01 -0.4692038E-01 -0.3571429E-01   0.0000000E+00 -0.3411994E-15 -0.1000000E+01
 -0.2708947E-01 -0.4692038E-01 -0.3571429E-01   0.0000000E+00 -0.3411994E-15 -0.1000000E+01
           6
 -0.2708947E-01 -0.4692038E-01  0.3571429E-01  -0.0000000E+00 -0.3411994E-15  0.1000000E+01
  0.2708947E-01 -0.4692038E-01  0.3571429E-01  -0.0000000E+00 -0.3411994E-15  0.1000000E+01
  0.5417897E-01 -0.3813144E-11  0.3571429E-01  -0.0000000E+00 -0.3411994E-15  0.1000000E+01
  0.2708947E-01  0.4692038E-01  0.3571429E-01  -0.0000000E+00 -0.3411994E-15  0.1000000E+01
 -0.2708947E-01  0.4692038E-01  0.3571429E-01  -0.0000000E+00 -0.3411994E-15  0.1000000E+01
 -0.5417897E-01  0.3813147E-11  0.3571429E-01  -0.0000000E+00 -0.3411994E-15  0.1000000E+01
           4
 -0.2708947E-01  0.4692038E-01  0.3571429E-01  -0.1280737E-15  0.1000000E+01  0.1120644E-15
  0.2708947E-01  0.4692038E-01  0.3571429E-01  -0.1280737E-15  0.1000000E+01  0.1120644E-15
  0.2708947E-01  0.4692038E-01 -0.3571429E-01  -0.1280737E-15  0.1000000E+01  0.1120644E-15
 -0.2708947E-01  0.4692038E-01 -0.3571429E-01  -0.1280737E-15  0.1000000E+01  0.1120644E-15
           4
  0.2708947E-01 -0.4692038E-01 -0.3571429E-01   0.8660253E+00 -0.5000002E+00 -0.4353846E-16
  0.5417897E-01 -0.3813147E-11 -0.3571429E-01   0.8660253E+00 -0.5000002E+00 -0.4353846E-16
  0.5417897E-01 -0.3813153E-11  0.3571429E-01   0.8660253E+00 -0.5000002E+00 -0.4353846E-16
  0.2708947E-01 -0.4692038E-01  0.3571429E-01   0.8660253E+00 -0.5000002E+00 -0.4353846E-16
           4
  0.2708947E-01  0.4692038E-01  0.3571429E-01   0.8660253E+00  0.5000002E+00 -0.1712065E-15
  0.5417897E-01 -0.3813134E-11  0.3571429E-01   0.8660253E+00  0.5000002E+00 -0.1712065E-15
  0.5417897E-01 -0.3813147E-11 -0.3571429E-01   0.8660253E+00  0.5000002E+00 -0.1712065E-15
  0.2708947E-01  0.4692038E-01 -0.3571429E-01   0.8660253E+00  0.5000002E+00 -0.1712065E-15
 BRILLOUIN-ZONE-CONVCELL_END
 ATOMS
    6    1.2305023000    0.7104376070    6.9999711790    0.0733655600    0.0047161800    0.1067878200
    6    0.0000123050    1.4208539020    6.9999711790   -0.0333533600    0.0681099900    0.1106141000
    6   -0.0307265530    2.8818150050    7.1041044550    0.0001129200   -0.0002326500   -0.0002634500
    6   -1.2304838430    3.5521347540    6.9999711790   -0.0326186700    0.0397527100   -0.0341165900
    6   -1.2389549110    4.9766616330    7.0385830070    0.0002375200    0.0000866600    0.0002660300
    6   -2.4609799900    5.6834156060    6.9999711790   -0.0369275800   -0.0061139400   -0.0019518100
    6   -2.4643847190    7.1154866600    7.0071991960   -0.0003099700   -0.0001360600   -0.0004506700
    6   -3.6914761380    7.8146964590    6.9999711790   -0.0181978200    0.0143844200   -0.0088803300
    6   -3.6914822900    9.2355397040    6.9999711790   -0.0006214100   -0.0039886200   -0.0002160300
    6   -4.9219784380    9.9459666550    6.9999711790   -0.0257574900   -0.1035787200   -0.0586862100
    6    3.6914822900    0.7104376070    6.9999711790    0.0513291600    0.0034206100   -0.0325676400
    6    2.5102802420    1.4118041550    7.0785289080    0.0002259700    0.0001889600    0.0005411100
    6    2.6782717140    2.6772445240    7.6460533660   -0.0002034900   -0.0004272600    0.0006690400
    6    0.9699311670    3.6597360430    7.6916077080    0.0001134400   -0.0003400700   -0.0002810200
    6    1.1251483800    5.0338311660    7.5303804510    0.0002933600   -0.0007844600   -0.0004817500
    6   -0.0376648990    5.6938764880    7.2030048530   -0.0002442400    0.0002923600   -0.0001871500
    6   -0.0488165530    7.1361860890    7.3750141950   -0.0007092800   -0.0000043400    0.0005187000
    6   -1.2792703530    7.8427781490    7.0619637880   -0.0005289300    0.0004488800    0.0001514400
    6   -1.2504275940    9.2417537100    7.0153906790   -0.0001860700   -0.0003606300    0.0003089100
    6   -2.4609984480    9.9459666550    6.9999711790   -0.0080941700   -0.0164363400   -0.0205292700
    6    6.1524745850    0.7104376070    6.9999711790    0.0297424600   -0.0114619900   -0.0014188400
    6    4.9231447020    1.4230382300    7.0260966740    0.0001260000    0.0000920900    0.0001140000
    6    4.9411146920    2.8192137060    7.1480307520    0.0000541900   -0.0000754800   -0.0001052200
    6    3.7786298490    3.4966187250    7.4537354440    0.0006037600    0.0004966800    0.0000878000
    6    3.7558507970    4.9482753410    7.7325090810   -0.0004666200    0.0000206000   -0.0000262000
    6    2.4272577600    5.7221095200    7.7727476950   -0.0001314000   -0.0000636200   -0.0001219300
    6    2.4959818500    7.1354665400    7.3862489140   -0.0003271600    0.0001932100    0.0002240400
    6    1.2335060920    7.8679089370    7.4274315050   -0.0007145000   -0.0001812300    0.0005460200
    6    1.2298028530    9.2796095980    7.0776305840   -0.0001398700    0.0000112500    0.0001951000
    6   -0.0000061520    9.9459666550    6.9999711790    0.0122493000    0.0147843700    0.0049487600
    6    8.6134668800    0.7104376070    6.9999711790   -0.0042536000   -0.0146780000   -0.0076850900
    6    7.3868778830    1.3834915200    7.0520475050   -0.0000077800    0.0000023100    0.0001938900
    6    7.4340180100    2.8163599140    7.3213719420    0.0000458800    0.0001273100    0.0000831200
    6    6.1747667330    3.5595534500    7.3790165010    0.0000627400    0.0002887700    0.0000900400
    6    6.1633406730    5.0117597210    7.1799384140   -0.0003223100    0.0001868300    0.0006132500
    6    4.9628448010    5.6998736900    7.3245867610   -0.0003709000    0.0003233500    0.0000658800
    6    4.9379345090    7.0978820910    7.1963894200   -0.0001612800    0.0004868600    0.0003041900
    6    3.6833254090    7.8068580940    7.2097941670   -0.0000905100   -0.0001275000    0.0005886500
    6    3.7026933890    9.2439210200    7.0482114780   -0.0001365900    0.0003059300    0.0003905200
    6    2.4609861430    9.9459666550    6.9999711790    0.0038239000    0.0096648900    0.0064132600
    6   11.0744468710    0.7104376070    6.9999711790   -0.1121583200   -0.0099956500   -0.0598706800
    6    9.8439568750    1.4208539020    6.9999711790    0.0443583200   -0.0436776700    0.0003897300
    6    9.8439507230    2.8416971470    6.9999711790    0.0003965500    0.0323423100   -0.0169336700
    6    8.6608311110    3.5568511700    7.0621929400    0.0001625700    0.0000941500   -0.0000698400
    6    8.6134545760    4.9729779990    6.9999711790    0.0427161400    0.0098522800    0.0062691400
    6    7.3776282780    5.6916122370    7.0286658420   -0.0002575100    0.0000843000   -0.0000304200
    6    7.3829584280    7.1042588520    6.9999711790    0.0014622100    0.0069805400    0.0043115900
    6    6.1524677010    7.8116702150    7.0439350940    0.0001663200   -0.0000143500   -0.0001707100
    6    6.1524622800    9.2355397040    6.9999711790    0.0569848400    0.0024691700   -0.0014312800
    6    4.9219661330    9.9459666550    6.9999711790   -0.0413260300    0.0020533000    0.0010517200
    8    3.1731795400    5.4034825160    8.9800382110   -0.0001024300   -0.0001235600    0.0002381800
    8    0.5612836610    0.9600864250    8.3677673790   -0.0000306100    0.0004460900   -0.0002821000
    8    1.8069332010    3.0971700970    8.6153542840    0.0000585500    0.0001786400    0.0004806300
    8    6.8288446230    3.1616857450    8.6383780650    0.0004016600   -0.0002102700   -0.0002985400
    8    0.4958672940    7.5696377790    8.6859518800   -0.0003434200    0.0001264300   -0.0004002300
 FRAMES
1      0.0000000000    0.0000000000    0.0000000000     12.3048999510    0.0000000000    0.0000000000
1      0.0000000000    0.0000000000    0.0000000000     -6.1524499750   10.6563509800    0.0000000000
1      0.0000000000    0.0000000000    0.0000000000      0.0000000000    0.0000000000   13.9999983580
1      0.0000000000    0.0000000000   13.9999983580     12.3048999510    0.0000000000   13.9999983580
1      0.0000000000    0.0000000000   13.9999983580     -6.1524499750   10.6563509800   13.9999983580
1     -6.1524499750   10.6563509800    0.0000000000      6.1524499760   10.6563509800    0.0000000000