
     Program PWSCF v.6.1 starts on 25Jan2022 at 21:41:39 

     This program is part of the open-source Quantum ESPRESSO suite
     for quantum simulation of materials; please cite
         "P. Giannozzi et al., J. Phys.:Condens. Matter 21 395502 (2009);
          URL http://www.quantum-espresso.org", 
     in publications or presentations arising from this work. More details at
     http://www.quantum-espresso.org/quote

     Parallel version (MPI & OpenMP), running on       8 processor cores
     Number of MPI processes:                 8
     Threads/MPI process:                     1
     R & G space division:  proc/nbgrp/npool/nimage =       8
     Reading input from espresso.in
Warning: card &CELL ignored
Warning: card     CELL_DOFREE    = "XY" ignored
Warning: card     CELL_DYNAMICS  = "BFGS" ignored
Warning: card     PRESS          =  0.00000E+00 ignored
Warning: card     PRESS_CONV_THR =  5.00000E-01 ignored
Warning: card / ignored

     Current dimensions of program PWSCF are:
     Max number of different atomic species (ntypx) = 10
     Max number of k-points (npk) =  40000
     Max angular momentum in pseudopotentials (lmaxx) =  3
               file C.pbe-rrkjus.UPF: wavefunction(s)  2S 2P renormalized
               file O.pbe-rrkjus.UPF: wavefunction(s)  2S renormalized

     gamma-point specific algorithms are used

     Subspace diagonalization in iterative solution of the eigenvalue problem:
     a serial algorithm will be used


     Parallelization info
     --------------------
     sticks:   dense  smooth     PW     G-vecs:    dense   smooth      PW
     Min        1048     463    115                88231    26106    3260
     Max        1052     468    118                88236    26108    3268
     Sum        8395    3721    931               705865   208861   26101


     Title: 
     GrapheneO1(Optimize)                                                       


     bravais-lattice index     =            4
     lattice parameter (alat)  =      23.2529  a.u.
     unit-cell volume          =   12388.2925 (a.u.)^3
     number of atoms/cell      =           51
     number of atomic types    =            2
     number of electrons       =       206.00
     number of Kohn-Sham states=          124
     kinetic-energy cutoff     =      25.0000  Ry
     charge density cutoff     =     225.0000  Ry
     convergence threshold     =      1.0E-06
     mixing beta               =       0.7000
     number of iterations used =            8  plain     mixing
     Exchange-correlation      =  SLA  PW   PBE  PBE ( 1  4  3  4 0 0)
     nstep                     =           50


     celldm(1)=  23.252891  celldm(2)=   0.000000  celldm(3)=   1.137758
     celldm(4)=   0.000000  celldm(5)=   0.000000  celldm(6)=   0.000000

     crystal axes: (cart. coord. in units of alat)
               a(1) = (   1.000000   0.000000   0.000000 )  
               a(2) = (  -0.500000   0.866025   0.000000 )  
               a(3) = (   0.000000   0.000000   1.137758 )  

     reciprocal axes: (cart. coord. in units 2 pi/alat)
               b(1) = (  1.000000  0.577350 -0.000000 )  
               b(2) = (  0.000000  1.154701  0.000000 )  
               b(3) = (  0.000000 -0.000000  0.878921 )  


     PseudoPot. # 1 for C  read from file:
     C:\Users\azzam\.burai\.pseudopot/C.pbe-rrkjus.UPF
     MD5 check sum: 00fb224312de0c5b6853bd333518df6f
     Pseudo is Ultrasoft, Zval =  4.0
     Generated by new atomic code, or converted to UPF format
     Using radial grid of  627 points,  4 beta functions with: 
                l(1) =   0
                l(2) =   0
                l(3) =   1
                l(4) =   1
     Q(r) pseudized with 0 coefficients 


     PseudoPot. # 2 for O  read from file:
     C:\Users\azzam\.burai\.pseudopot/O.pbe-rrkjus.UPF
     MD5 check sum: 390ba29e75625707450f3bd3f0eb6be9
     Pseudo is Ultrasoft, Zval =  6.0
     Generated by new atomic code, or converted to UPF format
     Using radial grid of 1269 points,  4 beta functions with: 
                l(1) =   0
                l(2) =   0
                l(3) =   1
                l(4) =   1
     Q(r) pseudized with 0 coefficients 


     atomic species   valence    mass     pseudopotential
        C              4.00    12.01070     C ( 1.00)
        O              6.00    15.99940     O ( 1.00)

      4 Sym. Ops. (no inversion) found



   Cartesian axes

     site n.     atom                  positions (alat units)
         1           C   tau(   1) = (   0.1000010   0.0577362   0.5688768  )
         2           C   tau(   2) = (   0.0000010   0.1154706   0.5688768  )
         3           C   tau(   3) = (   0.0000000   0.2309413   0.5688768  )
         4           C   tau(   4) = (  -0.0999995   0.2886766   0.5688768  )
         5           C   tau(   5) = (  -0.1000005   0.4041472   0.5688768  )
         6           C   tau(   6) = (  -0.2000000   0.4618825   0.5688768  )
         7           C   tau(   7) = (  -0.2000010   0.5773532   0.5688768  )
         8           C   tau(   8) = (  -0.3000005   0.6350885   0.5688768  )
         9           C   tau(   9) = (  -0.3000010   0.7505582   0.5688768  )
        10           C   tau(  10) = (  -0.4000015   0.8082936   0.5688768  )
        11           C   tau(  11) = (   0.3000010   0.0577362   0.5688768  )
        12           C   tau(  12) = (   0.2000010   0.1154706   0.5688768  )
        13           C   tau(  13) = (   0.2000015   0.2309404   0.5688768  )
        14           C   tau(  14) = (   0.0999995   0.2886766   0.5688768  )
        15           C   tau(  15) = (   0.1000005   0.4041472   0.5688768  )
        16           C   tau(  16) = (  -0.0000005   0.4618817   0.5688768  )
        17           C   tau(  17) = (   0.0000005   0.5773523   0.5688768  )
        18           C   tau(  18) = (  -0.1000010   0.6350876   0.5688768  )
        19           C   tau(  19) = (  -0.1000010   0.7505582   0.5688768  )
        20           C   tau(  20) = (  -0.2000015   0.8082936   0.5688768  )
        21           C   tau(  21) = (   0.5000020   0.0577362   0.5688768  )
        22           C   tau(  22) = (   0.4000010   0.1154706   0.5688768  )
        23           C   tau(  23) = (   0.4000020   0.2309413   0.5688768  )
        24           C   tau(  24) = (   0.3000010   0.2886757   0.5688768  )
        25           C   tau(  25) = (   0.3000020   0.4041463   0.5688768  )
        26           C   tau(  26) = (   0.2000000   0.4618825   0.5688768  )
        27           C   tau(  27) = (   0.2000010   0.5773532   0.5688768  )
        28           C   tau(  28) = (   0.1000000   0.6350876   0.5688768  )
        29           C   tau(  29) = (   0.1000010   0.7505582   0.5688768  )
        30           C   tau(  30) = (  -0.0000005   0.8082936   0.5688768  )
        31           C   tau(  31) = (   0.7000030   0.0577362   0.5688768  )
        32           C   tau(  32) = (   0.6000030   0.1154706   0.5688768  )
        33           C   tau(  33) = (   0.6000030   0.2309413   0.5688768  )
        34           C   tau(  34) = (   0.5000015   0.2886766   0.5688768  )
        35           C   tau(  35) = (   0.5000025   0.4041472   0.5688768  )
        36           C   tau(  36) = (   0.4000015   0.4618817   0.5688768  )
        37           C   tau(  37) = (   0.4000025   0.5773523   0.5688768  )
        38           C   tau(  38) = (   0.3000005   0.6350885   0.5688768  )
        39           C   tau(  39) = (   0.3000010   0.7505582   0.5688768  )
        40           C   tau(  40) = (   0.2000005   0.8082936   0.5688768  )
        41           C   tau(  41) = (   0.9000030   0.0577362   0.5688768  )
        42           C   tau(  42) = (   0.8000030   0.1154706   0.5688768  )
        43           C   tau(  43) = (   0.8000025   0.2309404   0.5688768  )
        44           C   tau(  44) = (   0.7000030   0.2886757   0.5688768  )
        45           C   tau(  45) = (   0.7000020   0.4041463   0.5688768  )
        46           C   tau(  46) = (   0.6000025   0.4618817   0.5688768  )
        47           C   tau(  47) = (   0.6000015   0.5773523   0.5688768  )
        48           C   tau(  48) = (   0.5000020   0.6350876   0.5688768  )
        49           C   tau(  49) = (   0.5000010   0.7505582   0.5688768  )
        50           C   tau(  50) = (   0.4000005   0.8082936   0.5688768  )
        51           O   tau(  51) = (   0.2500000   0.4330127   0.6826549  )

     number of k points=     1  gaussian smearing, width (Ry)=  0.0100
                       cart. coord. in units 2pi/alat
        k(    1) = (   0.0000000   0.0000000   0.0000000), wk =   2.0000000

     Dense  grid:   352933 G-vectors     FFT dimensions: ( 120, 120, 128)

     Smooth grid:   104431 G-vectors     FFT dimensions: (  75,  75,  90)

     Estimated max dynamical RAM per process >      76.06MB

     Estimated total allocated dynamical RAM >     608.52MB

     Initial potential from superposition of free atoms
     Check: negative starting charge=   -0.000359

     starting charge  205.99737, renormalised to  206.00000

     negative rho (up, down):  3.585E-04 0.000E+00
     Starting wfc are  204 randomized atomic wfcs

     total cpu time spent up to now is        5.4 secs

     Self-consistent Calculation

     iteration #  1     ecut=    25.00 Ry     beta=0.70
     Davidson diagonalization with overlap
     ethr =  1.00E-02,  avg # of iterations =  2.0

     negative rho (up, down):  1.819E-04 0.000E+00

     total cpu time spent up to now is        9.4 secs

     total energy              =    -600.47386686 Ry
     Harris-Foulkes estimate   =    -603.53467850 Ry
     estimated scf accuracy    <       5.11573361 Ry

     iteration #  2     ecut=    25.00 Ry     beta=0.70
     Davidson diagonalization with overlap
     ethr =  2.48E-03,  avg # of iterations =  7.0

     negative rho (up, down):  2.623E-04 0.000E+00

     total cpu time spent up to now is       13.4 secs

     total energy              =    -601.22937797 Ry
     Harris-Foulkes estimate   =    -601.26220107 Ry
     estimated scf accuracy    <       0.10165190 Ry

     iteration #  3     ecut=    25.00 Ry     beta=0.70
     Davidson diagonalization with overlap
     ethr =  4.93E-05,  avg # of iterations = 10.0

     negative rho (up, down):  3.380E-03 0.000E+00

     total cpu time spent up to now is       17.7 secs

     total energy              =    -601.22318377 Ry
     Harris-Foulkes estimate   =    -601.27334632 Ry
     estimated scf accuracy    <       0.10279863 Ry

     iteration #  4     ecut=    25.00 Ry     beta=0.70
     Davidson diagonalization with overlap
     ethr =  4.93E-05,  avg # of iterations =  3.0

     negative rho (up, down):  1.734E-03 0.000E+00

     total cpu time spent up to now is       21.1 secs

     total energy              =    -601.24638775 Ry
     Harris-Foulkes estimate   =    -601.25872765 Ry
     estimated scf accuracy    <       0.03397959 Ry

     iteration #  5     ecut=    25.00 Ry     beta=0.70
     Davidson diagonalization with overlap
     ethr =  1.65E-05,  avg # of iterations =  4.0

     negative rho (up, down):  5.329E-04 0.000E+00

     total cpu time spent up to now is       24.5 secs

     total energy              =    -601.25120039 Ry
     Harris-Foulkes estimate   =    -601.25567075 Ry
     estimated scf accuracy    <       0.01272287 Ry

     iteration #  6     ecut=    25.00 Ry     beta=0.70
     Davidson diagonalization with overlap
     ethr =  6.18E-06,  avg # of iterations = 11.0

     negative rho (up, down):  2.834E-04 0.000E+00

     total cpu time spent up to now is       28.3 secs

     total energy              =    -601.25313541 Ry
     Harris-Foulkes estimate   =    -601.25344426 Ry
     estimated scf accuracy    <       0.00070800 Ry

     iteration #  7     ecut=    25.00 Ry     beta=0.70
     Davidson diagonalization with overlap
     ethr =  3.44E-07,  avg # of iterations =  3.0

     negative rho (up, down):  2.489E-04 0.000E+00

     total cpu time spent up to now is       33.2 secs

     total energy              =    -601.25332042 Ry
     Harris-Foulkes estimate   =    -601.25334558 Ry
     estimated scf accuracy    <       0.00006898 Ry

     iteration #  8     ecut=    25.00 Ry     beta=0.70
     Davidson diagonalization with overlap
     ethr =  3.35E-08,  avg # of iterations =  3.0

     negative rho (up, down):  2.330E-04 0.000E+00

     total cpu time spent up to now is       36.6 secs

     total energy              =    -601.25333215 Ry
     Harris-Foulkes estimate   =    -601.25333344 Ry
     estimated scf accuracy    <       0.00000345 Ry

     iteration #  9     ecut=    25.00 Ry     beta=0.70
     Davidson diagonalization with overlap
     ethr =  1.67E-09,  avg # of iterations =  3.0

     negative rho (up, down):  2.315E-04 0.000E+00

     total cpu time spent up to now is       41.5 secs

     total energy              =    -601.25333292 Ry
     Harris-Foulkes estimate   =    -601.25333355 Ry
     estimated scf accuracy    <       0.00000158 Ry

     iteration # 10     ecut=    25.00 Ry     beta=0.70
     Davidson diagonalization with overlap
     ethr =  7.67E-10,  avg # of iterations =  3.0

     negative rho (up, down):  2.314E-04 0.000E+00

     total cpu time spent up to now is       44.9 secs

     End of self-consistent calculation

          k = 0.0000 0.0000 0.0000 ( 13051 PWs)   bands (ev):

   -23.7658 -20.9974 -20.2025 -20.1813 -20.1624 -20.1623 -20.1484 -19.5244
   -18.4305 -18.3619 -18.3217 -18.3120 -18.3047 -17.9630 -17.5270 -17.4561
   -17.4298 -17.4194 -17.4113 -16.8989 -15.4151 -15.2629 -15.2606 -15.2301
   -15.2286 -15.1093 -14.4160 -14.3747 -14.2962 -14.2750 -14.2746 -14.2407
   -13.0276 -13.0167 -12.9859 -12.9455 -12.9242 -12.9063 -10.8652 -10.7170
   -10.7094 -10.6012 -10.5181 -10.5154 -10.4990 -10.4914 -10.4525 -10.4524
   -10.4522 -10.4471  -9.2868  -9.2149  -9.1576  -9.1181  -9.0945  -9.0856
    -9.0719  -8.3656  -8.3138  -8.1378  -8.0866  -8.0833  -8.0730  -7.9509
    -7.9370  -7.9045  -7.8241  -7.7926  -7.7873  -7.7869  -7.7588  -7.7572
    -7.7438  -7.7298  -7.7229  -6.8996  -6.6372  -6.2385  -6.2157  -6.1929
    -6.1355  -6.1334  -6.1246  -6.0606  -5.9477  -5.9436  -5.9410  -5.5355
    -5.3976  -5.1733  -5.0564  -5.0500  -5.0462  -4.6898  -4.6763  -4.1966
    -3.6466  -3.6229  -3.0763  -3.0558  -3.0539  -2.9798  -2.3200  -1.2247
    -0.2565  -0.2510  -0.2499  -0.1187   0.1417   0.7570   1.6073   1.6139
     1.6219   1.7550   1.7587   1.9033   2.4065   2.7340   3.0057   3.0205
     3.0491   3.1786   3.2746   3.3362

     the Fermi energy is    -1.7724 ev

!    total energy              =    -601.25333304 Ry
     Harris-Foulkes estimate   =    -601.25333343 Ry
     estimated scf accuracy    <       0.00000044 Ry

     The total energy is the sum of the following terms:

     one-electron contribution =   -3787.54262512 Ry
     hartree contribution      =    1931.12177519 Ry
     xc contribution           =    -182.60572837 Ry
     ewald contribution        =    1437.77324526 Ry
     smearing contrib. (-TS)   =      -0.00000000 Ry

     convergence has been achieved in  10 iterations

     Forces acting on atoms (cartesian axes, Ry/au):

     atom    1 type  1   force =     0.00404626   -0.00687113    0.00016892
     atom    2 type  1   force =    -0.00797370    0.00006860    0.00016892
     atom    3 type  1   force =     0.00101345    0.00262484    0.00118791
     atom    4 type  1   force =     0.00028088    0.00212127   -0.00010173
     atom    5 type  1   force =     0.00024126   -0.00425336    0.00149631
     atom    6 type  1   force =     0.00107552    0.00686986    0.00032186
     atom    7 type  1   force =    -0.00284177   -0.00809985   -0.00009433
     atom    8 type  1   force =     0.00033095    0.00351090   -0.00023577
     atom    9 type  1   force =     0.01302337   -0.00751905    0.00016261
     atom   10 type  1   force =    -0.01405153    0.00811265   -0.00008314
     atom   11 type  1   force =     0.00169663    0.00130389   -0.00010173
     atom   12 type  1   force =     0.00176645    0.00219010    0.00118791
     atom   13 type  1   force =     0.04421758   -0.00145809   -0.00211246
     atom   14 type  1   force =    -0.02337153    0.03756451   -0.00211246
     atom   15 type  1   force =    -0.07864153   -0.05234167   -0.03997050
     atom   16 type  1   force =     0.01553096   -0.01447920   -0.00445352
     atom   17 type  1   force =    -0.01431334    0.00826381    0.00048022
     atom   18 type  1   force =     0.01223128   -0.00706173    0.00054311
     atom   19 type  1   force =     0.00559379    0.00651097   -0.00009433
     atom   20 type  1   force =    -0.00287505   -0.00204206   -0.00023577
     atom   21 type  1   force =     0.00541171    0.00436636    0.00032186
     atom   22 type  1   force =    -0.00380415   -0.00191775    0.00149631
     atom   23 type  1   force =    -0.02030483    0.00621061   -0.00445352
     atom   24 type  1   force =    -0.00600845   -0.09427639   -0.03997050
     atom   25 type  1   force =     0.04026533   -0.02324720    0.09312413
     atom   26 type  1   force =    -0.04026533    0.02324720    0.09312413
     atom   27 type  1   force =     0.00600845    0.09427639   -0.03997050
     atom   28 type  1   force =     0.02030483   -0.00621061   -0.00445352
     atom   29 type  1   force =     0.00380415    0.00191775    0.00149631
     atom   30 type  1   force =    -0.00541171   -0.00436636    0.00032186
     atom   31 type  1   force =     0.00287505    0.00204206   -0.00023577
     atom   32 type  1   force =    -0.00559379   -0.00651097   -0.00009433
     atom   33 type  1   force =    -0.01223128    0.00706173    0.00054311
     atom   34 type  1   force =     0.01431334   -0.00826381    0.00048022
     atom   35 type  1   force =    -0.01553096    0.01447920   -0.00445352
     atom   36 type  1   force =     0.07864153    0.05234167   -0.03997050
     atom   37 type  1   force =     0.02337153   -0.03756451   -0.00211246
     atom   38 type  1   force =    -0.04421758    0.00145809   -0.00211246
     atom   39 type  1   force =    -0.00176645   -0.00219010    0.00118791
     atom   40 type  1   force =    -0.00169663   -0.00130389   -0.00010173
     atom   41 type  1   force =     0.01405153   -0.00811265   -0.00008314
     atom   42 type  1   force =    -0.01302337    0.00751905    0.00016261
     atom   43 type  1   force =    -0.00033095   -0.00351090   -0.00023577
     atom   44 type  1   force =     0.00284177    0.00809985   -0.00009433
     atom   45 type  1   force =    -0.00107552   -0.00686986    0.00032186
     atom   46 type  1   force =    -0.00024126    0.00425336    0.00149631
     atom   47 type  1   force =    -0.00028088   -0.00212127   -0.00010173
     atom   48 type  1   force =    -0.00101345   -0.00262484    0.00118791
     atom   49 type  1   force =     0.00797370   -0.00006860    0.00016892
     atom   50 type  1   force =    -0.00404626    0.00687113    0.00016892
     atom   51 type  2   force =     0.00000000    0.00000000   -0.01328063

     Total force =     0.273900     Total SCF correction =     0.001328

     BFGS Geometry Optimization

     number of scf cycles    =   1
     number of bfgs steps    =   0

     energy   new            =    -601.2533330401 Ry

     new trust radius        =       0.1040856976 bohr
     new conv_thr            =       0.0000010000 Ry


ATOMIC_POSITIONS (crystal)
C        0.133335000   0.066668000   0.499998000    0   0   0
C        0.066668000   0.133334000   0.499998000    0   0   0
C        0.133442757   0.266798345   0.500042901
C        0.066668000   0.333335000   0.499998000    0   0   0
C        0.133238768   0.466457785   0.500054558
C        0.066668000   0.533336000   0.499998000    0   0   0
C        0.133010676   0.666267775   0.499994434
C        0.066668000   0.733337000   0.499998000    0   0   0
C        0.133334000   0.866670000   0.499998000    0   0   0
C        0.066667000   0.933337000   0.499998000    0   0   0
C        0.333335000   0.066668000   0.499998000    0   0   0
C        0.266798345   0.133442757   0.500042901
C        0.335200392   0.266594594   0.499918152
C        0.266594594   0.335200392   0.499918152
C        0.328653389   0.464069798   0.498487180
C        0.266975409   0.532615987   0.499829664
C        0.332924633   0.667079367   0.500016152
C        0.267017674   0.732985326   0.500018529
C        0.333736225   0.866993324   0.499994434
C        0.266667000   0.933337000   0.499998000    0   0   0
C        0.533336000   0.066668000   0.499998000    0   0   0
C        0.466456785   0.133238768   0.500054558
C        0.532616987   0.266976409   0.499829664
C        0.464068798   0.328652389   0.498487180
C        0.534490418   0.465513582   0.503517941
C        0.465513582   0.534490418   0.503517941
C        0.535935202   0.671351611   0.498487180
C        0.467387013   0.733027591   0.499829664
C        0.533547215   0.866765232   0.500054558
C        0.466668000   0.933337000   0.499998000    0   0   0
C        0.733337000   0.066668000   0.499998000    0   0   0
C        0.666267775   0.133010676   0.499994434
C        0.732986326   0.267018674   0.500018529
C        0.667079367   0.332924633   0.500016152
C        0.733028591   0.467388013   0.499829664
C        0.671350611   0.535934202   0.498487180
C        0.733409406   0.664803608   0.499918152
C        0.664803608   0.733409406   0.499918152
C        0.733205655   0.866561243   0.500042901
C        0.666669000   0.933337000   0.499998000    0   0   0
C        0.933337000   0.066668000   0.499998000    0   0   0
C        0.866670000   0.133334000   0.499998000    0   0   0
C        0.933336000   0.266667000   0.499998000    0   0   0
C        0.866993324   0.333736225   0.499994434
C        0.933336000   0.466668000   0.499998000    0   0   0
C        0.866765232   0.533546215   0.500054558
C        0.933336000   0.666669000   0.499998000    0   0   0
C        0.866561243   0.733205655   0.500042901
C        0.933336000   0.866670000   0.499998000    0   0   0
C        0.866669000   0.933337000   0.499998000    0   0   0
O        0.500000000   0.500000000   0.599498014



     Writing output data file espresso.save
     Check: negative starting charge=   -0.000359
     NEW-OLD atomic charge density approx. for the potential
     Check: negative starting charge=   -0.000364

     negative rho (up, down):  2.700E-04 0.000E+00

     total cpu time spent up to now is       52.8 secs

     Self-consistent Calculation

     iteration #  1     ecut=    25.00 Ry     beta=0.70
     Davidson diagonalization with overlap
     WARNING:     4 eigenvalues not converged in regterg
     c_bands:  4 eigenvalues not converged
     ethr =  1.00E-06,  avg # of iterations = 20.0

     negative rho (up, down):  2.418E-04 0.000E+00

     total cpu time spent up to now is       61.1 secs

     total energy              =    -601.27896252 Ry
     Harris-Foulkes estimate   =    -601.29209538 Ry
     estimated scf accuracy    <       0.02079532 Ry

     iteration #  2     ecut=    25.00 Ry     beta=0.70
     Davidson diagonalization with overlap
     ethr =  1.01E-05,  avg # of iterations =  6.0

     negative rho (up, down):  9.746E-04 0.000E+00

     total cpu time spent up to now is       66.6 secs

     total energy              =    -601.28158753 Ry
     Harris-Foulkes estimate   =    -601.28911974 Ry
     estimated scf accuracy    <       0.01388552 Ry

     iteration #  3     ecut=    25.00 Ry     beta=0.70
     Davidson diagonalization with overlap
     ethr =  6.74E-06,  avg # of iterations =  8.0

     negative rho (up, down):  8.373E-04 0.000E+00

     total cpu time spent up to now is       71.9 secs

     total energy              =    -601.28430440 Ry
     Harris-Foulkes estimate   =    -601.28659313 Ry
     estimated scf accuracy    <       0.00537798 Ry

     iteration #  4     ecut=    25.00 Ry     beta=0.70
     Davidson diagonalization with overlap
     ethr =  2.61E-06,  avg # of iterations =  4.0

     negative rho (up, down):  3.192E-04 0.000E+00

     total cpu time spent up to now is       75.5 secs

     total energy              =    -601.28542808 Ry
     Harris-Foulkes estimate   =    -601.28580338 Ry
     estimated scf accuracy    <       0.00099255 Ry

     iteration #  5     ecut=    25.00 Ry     beta=0.70
     Davidson diagonalization with overlap
     ethr =  4.82E-07,  avg # of iterations =  9.0

     negative rho (up, down):  2.596E-04 0.000E+00

     total cpu time spent up to now is       80.7 secs

     total energy              =    -601.28559618 Ry
     Harris-Foulkes estimate   =    -601.28563311 Ry
     estimated scf accuracy    <       0.00007622 Ry

     iteration #  6     ecut=    25.00 Ry     beta=0.70
     Davidson diagonalization with overlap
     ethr =  3.70E-08,  avg # of iterations =  3.0

     negative rho (up, down):  2.413E-04 0.000E+00

     total cpu time spent up to now is       84.2 secs

     total energy              =    -601.28561427 Ry
     Harris-Foulkes estimate   =    -601.28562093 Ry
     estimated scf accuracy    <       0.00001498 Ry

     iteration #  7     ecut=    25.00 Ry     beta=0.70
     Davidson diagonalization with overlap
     ethr =  7.27E-09,  avg # of iterations =  3.0

     negative rho (up, down):  2.388E-04 0.000E+00

     total cpu time spent up to now is       89.1 secs

     total energy              =    -601.28561739 Ry
     Harris-Foulkes estimate   =    -601.28561930 Ry
     estimated scf accuracy    <       0.00000471 Ry

     iteration #  8     ecut=    25.00 Ry     beta=0.70
     Davidson diagonalization with overlap
     ethr =  2.29E-09,  avg # of iterations =  3.0

     negative rho (up, down):  2.385E-04 0.000E+00

     total cpu time spent up to now is       93.8 secs

     End of self-consistent calculation

          k = 0.0000 0.0000 0.0000 ( 13051 PWs)   bands (ev):

   -23.9422 -21.0127 -20.2433 -20.2271 -20.1765 -20.1475 -20.1433 -19.6040
   -18.4289 -18.4110 -18.3907 -18.3165 -18.2776 -17.9363 -17.4985 -17.4894
   -17.4530 -17.4448 -17.3857 -16.7653 -15.3389 -15.2961 -15.2916 -15.2470
   -15.2460 -14.9248 -14.3766 -14.3515 -14.2948 -14.2820 -14.2505 -14.1991
   -13.0534 -12.9964 -12.9677 -12.9223 -12.9170 -12.8639 -10.7397 -10.7094
   -10.6622 -10.6406 -10.5886 -10.5378 -10.5253 -10.4640 -10.4594 -10.4530
   -10.4473 -10.4291  -9.2636  -9.1865  -9.1564  -9.1353  -9.1308  -9.1034
    -9.0592  -8.4605  -8.2405  -8.1887  -8.0936  -8.0773  -8.0694  -7.9465
    -7.9111  -7.9080  -7.8278  -7.8245  -7.8236  -7.7768  -7.7745  -7.7521
    -7.7135  -7.7025  -7.6636  -6.9610  -6.5809  -6.2500  -6.2429  -6.2227
    -6.1359  -6.1031  -6.0259  -6.0004  -5.9933  -5.9315  -5.9129  -5.5669
    -5.3535  -5.1553  -5.1268  -5.0677  -5.0053  -4.6846  -4.6340  -4.3774
    -3.6456  -3.6428  -3.1432  -3.0752  -3.0577  -3.0286  -2.4370  -1.0767
    -0.2752  -0.2265  -0.2039  -0.0980   0.2308   0.9247   1.5423   1.6383
     1.6438   1.7617   1.8336   1.9872   2.5079   2.7530   3.0005   3.0075
     3.0075   3.0255   3.0455   3.1870

     the Fermi energy is    -1.7296 ev

!    total energy              =    -601.28561820 Ry
     Harris-Foulkes estimate   =    -601.28561844 Ry
     estimated scf accuracy    <       0.00000030 Ry

     The total energy is the sum of the following terms:

     one-electron contribution =   -3788.18647258 Ry
     hartree contribution      =    1931.47093125 Ry
     xc contribution           =    -182.67021125 Ry
     ewald contribution        =    1438.10013439 Ry
     smearing contrib. (-TS)   =      -0.00000000 Ry

     convergence has been achieved in   8 iterations

     Forces acting on atoms (cartesian axes, Ry/au):

     atom    1 type  1   force =     0.00395656   -0.00450170    0.00043560
     atom    2 type  1   force =    -0.00587686    0.00117563    0.00043560
     atom    3 type  1   force =    -0.00313560    0.00012765    0.00090948
     atom    4 type  1   force =    -0.00046370   -0.00081523    0.00012391
     atom    5 type  1   force =    -0.00003254    0.00184707    0.00010344
     atom    6 type  1   force =     0.00176864    0.00242678    0.00097600
     atom    7 type  1   force =     0.00367137    0.00083354   -0.00016392
     atom    8 type  1   force =     0.00278526    0.00330602   -0.00033340
     atom    9 type  1   force =     0.01492097   -0.00861463    0.00011979
     atom   10 type  1   force =    -0.01380900    0.00797263   -0.00018535
     atom   11 type  1   force =    -0.00047416   -0.00080919    0.00012391
     atom   12 type  1   force =     0.00167835   -0.00265169    0.00090948
     atom   13 type  1   force =    -0.04872454   -0.01440150   -0.00498730
     atom   14 type  1   force =     0.01189020   -0.04939744   -0.00498730
     atom   15 type  1   force =     0.02078147    0.03674427   -0.01774688
     atom   16 type  1   force =    -0.04883312    0.00860397   -0.00878603
     atom   17 type  1   force =     0.02754526   -0.01590326    0.00068837
     atom   18 type  1   force =    -0.00943646    0.00544814    0.00110940
     atom   19 type  1   force =     0.00111382   -0.00359627   -0.00016392
     atom   20 type  1   force =    -0.00147047   -0.00406511   -0.00033340
     atom   21 type  1   force =     0.00121734    0.00274507    0.00097600
     atom   22 type  1   force =     0.00161589    0.00089535    0.00010344
     atom   23 type  1   force =     0.03186782   -0.03798873   -0.00878603
     atom   24 type  1   force =     0.02143074    0.03636941   -0.01774688
     atom   25 type  1   force =    -0.00195848    0.00113073    0.07034363
     atom   26 type  1   force =     0.00195848   -0.00113073    0.07034363
     atom   27 type  1   force =    -0.02143074   -0.03636941   -0.01774688
     atom   28 type  1   force =    -0.03186782    0.03798873   -0.00878603
     atom   29 type  1   force =    -0.00161589   -0.00089535    0.00010344
     atom   30 type  1   force =    -0.00121734   -0.00274507    0.00097600
     atom   31 type  1   force =     0.00147047    0.00406511   -0.00033340
     atom   32 type  1   force =    -0.00111382    0.00359627   -0.00016392
     atom   33 type  1   force =     0.00943646   -0.00544814    0.00110940
     atom   34 type  1   force =    -0.02754526    0.01590326    0.00068837
     atom   35 type  1   force =     0.04883312   -0.00860397   -0.00878603
     atom   36 type  1   force =    -0.02078147   -0.03674427   -0.01774688
     atom   37 type  1   force =    -0.01189020    0.04939744   -0.00498730
     atom   38 type  1   force =     0.04872454    0.01440150   -0.00498730
     atom   39 type  1   force =    -0.00167835    0.00265169    0.00090948
     atom   40 type  1   force =     0.00047416    0.00080919    0.00012391
     atom   41 type  1   force =     0.01380900   -0.00797263   -0.00018535
     atom   42 type  1   force =    -0.01492097    0.00861463    0.00011979
     atom   43 type  1   force =    -0.00278526   -0.00330602   -0.00033340
     atom   44 type  1   force =    -0.00367137   -0.00083354   -0.00016392
     atom   45 type  1   force =    -0.00176864   -0.00242678    0.00097600
     atom   46 type  1   force =     0.00003254   -0.00184707    0.00010344
     atom   47 type  1   force =     0.00046370    0.00081523    0.00012391
     atom   48 type  1   force =     0.00313560   -0.00012765    0.00090948
     atom   49 type  1   force =     0.00587686   -0.00117563    0.00043560
     atom   50 type  1   force =    -0.00395656    0.00450170    0.00043560
     atom   51 type  2   force =     0.00000000    0.00000000   -0.02627526

     Total force =     0.204771     Total SCF correction =     0.001073

     number of scf cycles    =   2
     number of bfgs steps    =   1

     energy   old            =    -601.2533330401 Ry
     energy   new            =    -601.2856181958 Ry

     CASE: energy  _new < energy  _old

     new trust radius        =       0.0999277068 bohr
     new conv_thr            =       0.0000007034 Ry


ATOMIC_POSITIONS (crystal)
C        0.133335000   0.066668000   0.499998000    0   0   0
C        0.066668000   0.133334000   0.499998000    0   0   0
C        0.133372361   0.266856340   0.500090798
C        0.066668000   0.333335000   0.499998000    0   0   0
C        0.133238972   0.466452263   0.500080728
C        0.066668000   0.533336000   0.499998000    0   0   0
C        0.133035333   0.666141674   0.499987625
C        0.066668000   0.733337000   0.499998000    0   0   0
C        0.133334000   0.866670000   0.499998000    0   0   0
C        0.066667000   0.933337000   0.499998000    0   0   0
C        0.333335000   0.066668000   0.499998000    0   0   0
C        0.266856340   0.133372361   0.500090798
C        0.333824336   0.265945217   0.499722507
C        0.265945217   0.333824336   0.499722507
C        0.328334134   0.464605388   0.497296939
C        0.265463598   0.532696940   0.499473856
C        0.333444245   0.666559755   0.500046027
C        0.266924280   0.733078720   0.500063163
C        0.333862326   0.866968667   0.499987625
C        0.266667000   0.933337000   0.499998000    0   0   0
C        0.533336000   0.066668000   0.499998000    0   0   0
C        0.466451263   0.133238972   0.500080728
C        0.532697940   0.265464598   0.499473856
C        0.464604388   0.328333134   0.497296939
C        0.534906669   0.465097331   0.507241511
C        0.465097331   0.534906669   0.507241511
C        0.535399612   0.671670866   0.497296939
C        0.467306060   0.734539402   0.499473856
C        0.533552737   0.866765028   0.500080728
C        0.466668000   0.933337000   0.499998000    0   0   0
C        0.733337000   0.066668000   0.499998000    0   0   0
C        0.666141674   0.133035333   0.499987625
C        0.733079720   0.266925280   0.500063163
C        0.666559755   0.333444245   0.500046027
C        0.734540402   0.467307060   0.499473856
C        0.671669866   0.535398612   0.497296939
C        0.734058783   0.666179664   0.499722507
C        0.666179664   0.734058783   0.499722507
C        0.733147660   0.866631639   0.500090798
C        0.666669000   0.933337000   0.499998000    0   0   0
C        0.933337000   0.066668000   0.499998000    0   0   0
C        0.866670000   0.133334000   0.499998000    0   0   0
C        0.933336000   0.266667000   0.499998000    0   0   0
C        0.866968667   0.333862326   0.499987625
C        0.933336000   0.466668000   0.499998000    0   0   0
C        0.866765028   0.533551737   0.500080728
C        0.933336000   0.666669000   0.499998000    0   0   0
C        0.866631639   0.733147660   0.500090798
C        0.933336000   0.866670000   0.499998000    0   0   0
C        0.866669000   0.933337000   0.499998000    0   0   0
O        0.500000000   0.500000000   0.598434521



     Writing output data file espresso.save
     Check: negative starting charge=   -0.000364
     NEW-OLD atomic charge density approx. for the potential
     Check: negative starting charge=   -0.000368

     negative rho (up, down):  2.536E-04 0.000E+00

     total cpu time spent up to now is      101.6 secs

     Self-consistent Calculation

     iteration #  1     ecut=    25.00 Ry     beta=0.70
     Davidson diagonalization with overlap
     ethr =  1.00E-06,  avg # of iterations =  7.0

     negative rho (up, down):  2.433E-04 0.000E+00

     total cpu time spent up to now is      108.7 secs

     total energy              =    -601.30263696 Ry
     Harris-Foulkes estimate   =    -601.30525703 Ry
     estimated scf accuracy    <       0.00513045 Ry

     iteration #  2     ecut=    25.00 Ry     beta=0.70
     Davidson diagonalization with overlap
     ethr =  2.49E-06,  avg # of iterations =  4.0

     negative rho (up, down):  6.758E-04 0.000E+00

     total cpu time spent up to now is      112.6 secs

     total energy              =    -601.30275556 Ry
     Harris-Foulkes estimate   =    -601.30488878 Ry
     estimated scf accuracy    <       0.00398479 Ry

     iteration #  3     ecut=    25.00 Ry     beta=0.70
     Davidson diagonalization with overlap
     ethr =  1.93E-06,  avg # of iterations =  8.0

     negative rho (up, down):  4.560E-04 0.000E+00

     total cpu time spent up to now is      118.5 secs

     total energy              =    -601.30358570 Ry
     Harris-Foulkes estimate   =    -601.30435087 Ry
     estimated scf accuracy    <       0.00188122 Ry

     iteration #  4     ecut=    25.00 Ry     beta=0.70
     Davidson diagonalization with overlap
     ethr =  9.13E-07,  avg # of iterations =  6.0

     negative rho (up, down):  2.913E-04 0.000E+00

     total cpu time spent up to now is      122.4 secs

     total energy              =    -601.30394891 Ry
     Harris-Foulkes estimate   =    -601.30407751 Ry
     estimated scf accuracy    <       0.00032498 Ry

     iteration #  5     ecut=    25.00 Ry     beta=0.70
     Davidson diagonalization with overlap
     ethr =  1.58E-07,  avg # of iterations =  3.0

     negative rho (up, down):  2.543E-04 0.000E+00

     total cpu time spent up to now is      127.0 secs

     total energy              =    -601.30400910 Ry
     Harris-Foulkes estimate   =    -601.30401935 Ry
     estimated scf accuracy    <       0.00002151 Ry

     iteration #  6     ecut=    25.00 Ry     beta=0.70
     Davidson diagonalization with overlap
     ethr =  1.04E-08,  avg # of iterations =  3.0

     negative rho (up, down):  2.488E-04 0.000E+00

     total cpu time spent up to now is      132.0 secs

     total energy              =    -601.30401351 Ry
     Harris-Foulkes estimate   =    -601.30401652 Ry
     estimated scf accuracy    <       0.00000688 Ry

     iteration #  7     ecut=    25.00 Ry     beta=0.70
     Davidson diagonalization with overlap
     ethr =  3.34E-09,  avg # of iterations =  2.0

     negative rho (up, down):  2.473E-04 0.000E+00

     total cpu time spent up to now is      135.4 secs

     total energy              =    -601.30401498 Ry
     Harris-Foulkes estimate   =    -601.30401590 Ry
     estimated scf accuracy    <       0.00000265 Ry

     iteration #  8     ecut=    25.00 Ry     beta=0.70
     Davidson diagonalization with overlap
     ethr =  1.29E-09,  avg # of iterations =  2.0

     negative rho (up, down):  2.472E-04 0.000E+00

     total cpu time spent up to now is      140.2 secs

     End of self-consistent calculation

          k = 0.0000 0.0000 0.0000 ( 13051 PWs)   bands (ev):

   -24.6397 -21.0249 -20.2433 -20.2226 -20.1908 -20.1488 -20.1363 -19.6058
   -18.4005 -18.3715 -18.3642 -18.3111 -18.3102 -17.9259 -17.4977 -17.4715
   -17.4472 -17.4213 -17.4056 -16.7164 -15.3092 -15.3014 -15.2914 -15.2525
   -15.2440 -14.8855 -14.3717 -14.3304 -14.3016 -14.2863 -14.2735 -14.0867
   -13.0299 -12.9625 -12.9497 -12.9383 -12.9031 -12.8589 -10.7383 -10.7227
   -10.6365 -10.6241 -10.5913 -10.5365 -10.4967 -10.4737 -10.4710 -10.4593
   -10.4501 -10.4370  -9.2772  -9.1966  -9.1488  -9.1476  -9.1375  -9.1249
    -9.0196  -8.5937  -8.2606  -8.2043  -8.1089  -8.0727  -8.0657  -7.8769
    -7.8590  -7.8411  -7.8218  -7.7984  -7.7959  -7.7951  -7.7606  -7.7520
    -7.7431  -7.7397  -7.7155  -7.1689  -6.5879  -6.3092  -6.2060  -6.1685
    -6.1555  -6.1094  -5.9741  -5.9723  -5.9545  -5.9310  -5.8831  -5.6221
    -5.3057  -5.1287  -5.1167  -5.0611  -5.0332  -4.6503  -4.6449  -4.4576
    -3.8254  -3.5746  -3.1126  -3.0705  -3.0534  -3.0481  -2.4442  -1.0382
    -0.2571  -0.2233  -0.2046  -0.1236   0.2318   0.9489   1.6062   1.6352
     1.6376   1.7640   1.8065   2.0520   2.6032   2.7921   3.0037   3.0065
     3.0084   3.0342   3.0455   3.1890

     the Fermi energy is    -1.7479 ev

!    total energy              =    -601.30401527 Ry
     Harris-Foulkes estimate   =    -601.30401551 Ry
     estimated scf accuracy    <       0.00000027 Ry

     The total energy is the sum of the following terms:

     one-electron contribution =   -3789.74658294 Ry
     hartree contribution      =    1932.23835375 Ry
     xc contribution           =    -182.71441034 Ry
     ewald contribution        =    1438.91862426 Ry
     smearing contrib. (-TS)   =      -0.00000000 Ry

     convergence has been achieved in   8 iterations

     Forces acting on atoms (cartesian axes, Ry/au):

     atom    1 type  1   force =     0.00410443   -0.00610384    0.00069193
     atom    2 type  1   force =    -0.00733829    0.00050262    0.00069193
     atom    3 type  1   force =    -0.00719250   -0.00982307   -0.00051643
     atom    4 type  1   force =    -0.00124144   -0.00070219    0.00046020
     atom    5 type  1   force =    -0.02061529   -0.00296732   -0.00198072
     atom    6 type  1   force =    -0.00033006   -0.00076223    0.00161624
     atom    7 type  1   force =     0.00121921    0.00524174   -0.00011320
     atom    8 type  1   force =     0.00326896    0.00185341   -0.00035839
     atom    9 type  1   force =     0.01439790   -0.00831263    0.00011661
     atom   10 type  1   force =    -0.01367294    0.00789408   -0.00008455
     atom   11 type  1   force =     0.00001260   -0.00142622    0.00046020
     atom   12 type  1   force =    -0.00491078   -0.01114042   -0.00051643
     atom   13 type  1   force =    -0.00161718    0.00251314   -0.00651041
     atom   14 type  1   force =     0.00298504   -0.00014395   -0.00651041
     atom   15 type  1   force =     0.02000767    0.00662868    0.00022357
     atom   16 type  1   force =    -0.00059211    0.00466462   -0.01181795
     atom   17 type  1   force =    -0.01171771    0.00676522    0.00040625
     atom   18 type  1   force =     0.00561818   -0.00324365    0.00180239
     atom   19 type  1   force =    -0.00392988   -0.00367674   -0.00011320
     atom   20 type  1   force =     0.00002938   -0.00375771   -0.00035839
     atom   21 type  1   force =    -0.00049508   -0.00066695    0.00161624
     atom   22 type  1   force =     0.00773787   -0.01933702   -0.00198072
     atom   23 type  1   force =     0.00433574    0.00181953   -0.01181795
     atom   24 type  1   force =    -0.00426323    0.02064149    0.00022357
     atom   25 type  1   force =     0.00677811   -0.00391335    0.02823641
     atom   26 type  1   force =    -0.00677811    0.00391335    0.02823641
     atom   27 type  1   force =     0.00426323   -0.02064149    0.00022357
     atom   28 type  1   force =    -0.00433574   -0.00181953   -0.01181795
     atom   29 type  1   force =    -0.00773787    0.01933702   -0.00198072
     atom   30 type  1   force =     0.00049508    0.00066695    0.00161624
     atom   31 type  1   force =    -0.00002938    0.00375771   -0.00035839
     atom   32 type  1   force =     0.00392988    0.00367674   -0.00011320
     atom   33 type  1   force =    -0.00561818    0.00324365    0.00180239
     atom   34 type  1   force =     0.01171771   -0.00676522    0.00040625
     atom   35 type  1   force =     0.00059211   -0.00466462   -0.01181795
     atom   36 type  1   force =    -0.02000767   -0.00662868    0.00022357
     atom   37 type  1   force =    -0.00298504    0.00014395   -0.00651041
     atom   38 type  1   force =     0.00161718   -0.00251314   -0.00651041
     atom   39 type  1   force =     0.00491078    0.01114042   -0.00051643
     atom   40 type  1   force =    -0.00001260    0.00142622    0.00046020
     atom   41 type  1   force =     0.01367294   -0.00789408   -0.00008455
     atom   42 type  1   force =    -0.01439790    0.00831263    0.00011661
     atom   43 type  1   force =    -0.00326896   -0.00185341   -0.00035839
     atom   44 type  1   force =    -0.00121921   -0.00524174   -0.00011320
     atom   45 type  1   force =     0.00033006    0.00076223    0.00161624
     atom   46 type  1   force =     0.02061529    0.00296732   -0.00198072
     atom   47 type  1   force =     0.00124144    0.00070219    0.00046020
     atom   48 type  1   force =     0.00719250    0.00982307   -0.00051643
     atom   49 type  1   force =     0.00733829   -0.00050262    0.00069193
     atom   50 type  1   force =    -0.00410443    0.00610384    0.00069193
     atom   51 type  2   force =     0.00000000    0.00000000    0.01226648

     Total force =     0.086110     Total SCF correction =     0.001066

     number of scf cycles    =   3
     number of bfgs steps    =   2

     energy   old            =    -601.2856181958 Ry
     energy   new            =    -601.3040152702 Ry

     CASE: energy  _new < energy  _old

     new trust radius        =       0.0677695988 bohr
     new conv_thr            =       0.0000002824 Ry


ATOMIC_POSITIONS (crystal)
C        0.133335000   0.066668000   0.499998000    0   0   0
C        0.066668000   0.133334000   0.499998000    0   0   0
C        0.132713678   0.266308519   0.500083575
C        0.066668000   0.333335000   0.499998000    0   0   0
C        0.132103104   0.466260445   0.500003981
C        0.066668000   0.533336000   0.499998000    0   0   0
C        0.133229509   0.666382825   0.499980596
C        0.066668000   0.733337000   0.499998000    0   0   0
C        0.133334000   0.866670000   0.499998000    0   0   0
C        0.066667000   0.933337000   0.499998000    0   0   0
C        0.333335000   0.066668000   0.499998000    0   0   0
C        0.266308519   0.132713678   0.500083575
C        0.333623369   0.265922831   0.499377729
C        0.265922831   0.333623369   0.499377729
C        0.329074271   0.464913448   0.496884096
C        0.265215412   0.532930437   0.498845916
C        0.333146393   0.666857607   0.500073058
C        0.267118817   0.732884183   0.500156091
C        0.333621175   0.866774491   0.499980596
C        0.266667000   0.933337000   0.499998000    0   0   0
C        0.533336000   0.066668000   0.499998000    0   0   0
C        0.466259445   0.132103104   0.500003981
C        0.532931437   0.265216412   0.498845916
C        0.464912448   0.329073271   0.496884096
C        0.535334161   0.464669839   0.509719044
C        0.464669839   0.535334161   0.509719044
C        0.535091552   0.670930729   0.496884096
C        0.467072563   0.734787588   0.498845916
C        0.533744555   0.867900896   0.500003981
C        0.466668000   0.933337000   0.499998000    0   0   0
C        0.733337000   0.066668000   0.499998000    0   0   0
C        0.666382825   0.133229509   0.499980596
C        0.732885183   0.267119817   0.500156091
C        0.666857607   0.333146393   0.500073058
C        0.734788588   0.467073563   0.498845916
C        0.670929729   0.535090552   0.496884096
C        0.734081169   0.666380631   0.499377729
C        0.666380631   0.734081169   0.499377729
C        0.733695481   0.867290322   0.500083575
C        0.666669000   0.933337000   0.499998000    0   0   0
C        0.933337000   0.066668000   0.499998000    0   0   0
C        0.866670000   0.133334000   0.499998000    0   0   0
C        0.933336000   0.266667000   0.499998000    0   0   0
C        0.866774491   0.333621175   0.499980596
C        0.933336000   0.466668000   0.499998000    0   0   0
C        0.867900896   0.533743555   0.500003981
C        0.933336000   0.666669000   0.499998000    0   0   0
C        0.867290322   0.733695481   0.500083575
C        0.933336000   0.866670000   0.499998000    0   0   0
C        0.866669000   0.933337000   0.499998000    0   0   0
O        0.500000000   0.500000000   0.598671012



     Writing output data file espresso.save
     Check: negative starting charge=   -0.000368
     NEW-OLD atomic charge density approx. for the potential
     Check: negative starting charge=   -0.000368

     negative rho (up, down):  2.522E-04 0.000E+00

     total cpu time spent up to now is      148.3 secs

     Self-consistent Calculation

     iteration #  1     ecut=    25.00 Ry     beta=0.70
     Davidson diagonalization with overlap
     ethr =  1.00E-06,  avg # of iterations =  5.0

     negative rho (up, down):  2.492E-04 0.000E+00

     total cpu time spent up to now is      155.2 secs

     total energy              =    -601.30765908 Ry
     Harris-Foulkes estimate   =    -601.30935240 Ry
     estimated scf accuracy    <       0.00296825 Ry

     iteration #  2     ecut=    25.00 Ry     beta=0.70
     Davidson diagonalization with overlap
     ethr =  1.44E-06,  avg # of iterations =  6.0

     negative rho (up, down):  4.564E-04 0.000E+00

     total cpu time spent up to now is      161.2 secs

     total energy              =    -601.30778254 Ry
     Harris-Foulkes estimate   =    -601.30905194 Ry
     estimated scf accuracy    <       0.00233040 Ry

     iteration #  3     ecut=    25.00 Ry     beta=0.70
     Davidson diagonalization with overlap
     ethr =  1.13E-06,  avg # of iterations =  7.0

     negative rho (up, down):  3.660E-04 0.000E+00

     total cpu time spent up to now is      165.2 secs

     total energy              =    -601.30827626 Ry
     Harris-Foulkes estimate   =    -601.30872247 Ry
     estimated scf accuracy    <       0.00111758 Ry

     iteration #  4     ecut=    25.00 Ry     beta=0.70
     Davidson diagonalization with overlap
     ethr =  5.43E-07,  avg # of iterations =  3.0

     negative rho (up, down):  2.696E-04 0.000E+00

     total cpu time spent up to now is      169.9 secs

     total energy              =    -601.30849430 Ry
     Harris-Foulkes estimate   =    -601.30854746 Ry
     estimated scf accuracy    <       0.00013501 Ry

     iteration #  5     ecut=    25.00 Ry     beta=0.70
     Davidson diagonalization with overlap
     ethr =  6.55E-08,  avg # of iterations =  2.0

     negative rho (up, down):  2.560E-04 0.000E+00

     total cpu time spent up to now is      173.3 secs

     total energy              =    -601.30851789 Ry
     Harris-Foulkes estimate   =    -601.30852372 Ry
     estimated scf accuracy    <       0.00001184 Ry

     iteration #  6     ecut=    25.00 Ry     beta=0.70
     Davidson diagonalization with overlap
     ethr =  5.75E-09,  avg # of iterations =  3.0

     negative rho (up, down):  2.520E-04 0.000E+00

     total cpu time spent up to now is      176.9 secs

     total energy              =    -601.30852052 Ry
     Harris-Foulkes estimate   =    -601.30852295 Ry
     estimated scf accuracy    <       0.00000638 Ry

     iteration #  7     ecut=    25.00 Ry     beta=0.70
     Davidson diagonalization with overlap
     ethr =  3.10E-09,  avg # of iterations =  2.0

     negative rho (up, down):  2.514E-04 0.000E+00

     total cpu time spent up to now is      181.7 secs

     total energy              =    -601.30852168 Ry
     Harris-Foulkes estimate   =    -601.30852211 Ry
     estimated scf accuracy    <       0.00000112 Ry

     iteration #  8     ecut=    25.00 Ry     beta=0.70
     Davidson diagonalization with overlap
     ethr =  5.46E-10,  avg # of iterations =  3.0

     negative rho (up, down):  2.513E-04 0.000E+00

     total cpu time spent up to now is      185.0 secs

     End of self-consistent calculation

          k = 0.0000 0.0000 0.0000 ( 13051 PWs)   bands (ev):

   -24.9712 -21.0285 -20.2178 -20.1962 -20.1947 -20.1638 -20.1436 -19.5897
   -18.3735 -18.3703 -18.3554 -18.3188 -18.3173 -17.9456 -17.4944 -17.4659
   -17.4371 -17.4255 -17.3941 -16.7386 -15.3219 -15.2822 -15.2654 -15.2617
   -15.2482 -14.8874 -14.3684 -14.3133 -14.3056 -14.2980 -14.2661 -14.0568
   -13.0448 -12.9579 -12.9416 -12.9403 -12.9064 -12.8223 -10.7840 -10.7246
   -10.6631 -10.5932 -10.5644 -10.5196 -10.4958 -10.4913 -10.4901 -10.4640
   -10.4329 -10.4261  -9.3123  -9.2203  -9.1458  -9.1278  -9.1209  -9.1188
    -9.0263  -8.6995  -8.2968  -8.1970  -8.1163  -8.0833  -8.0697  -7.8445
    -7.8422  -7.8332  -7.8317  -7.8015  -7.7953  -7.7825  -7.7755  -7.7717
    -7.7306  -7.7291  -7.7068  -7.2673  -6.5690  -6.3168  -6.2378  -6.1668
    -6.1624  -6.1172  -5.9604  -5.9569  -5.9452  -5.8995  -5.8396  -5.6342
    -5.2884  -5.1236  -5.0846  -5.0586  -5.0142  -4.6547  -4.6227  -4.5072
    -3.9362  -3.5419  -3.0828  -3.0789  -3.0523  -3.0344  -2.4676  -1.0111
    -0.2709  -0.2360  -0.2095  -0.1127   0.2348   0.9691   1.5888   1.6456
     1.6491   1.7641   1.7717   2.0771   2.6213   2.7850   3.0033   3.0063
     3.0079   3.0396   3.0494   3.1878

     the Fermi energy is    -1.6977 ev

!    total energy              =    -601.30852179 Ry
     Harris-Foulkes estimate   =    -601.30852193 Ry
     estimated scf accuracy    <       0.00000015 Ry

     The total energy is the sum of the following terms:

     one-electron contribution =   -3789.57319594 Ry
     hartree contribution      =    1932.13028327 Ry
     xc contribution           =    -182.72437671 Ry
     ewald contribution        =    1438.85876759 Ry
     smearing contrib. (-TS)   =      -0.00000000 Ry

     convergence has been achieved in   8 iterations

     Forces acting on atoms (cartesian axes, Ry/au):

     atom    1 type  1   force =     0.00154053   -0.01078852    0.00076431
     atom    2 type  1   force =    -0.01011340   -0.00406012    0.00076431
     atom    3 type  1   force =     0.00466753    0.00441559   -0.00254396
     atom    4 type  1   force =    -0.00895438   -0.00488423    0.00058375
     atom    5 type  1   force =     0.01100450    0.00308979   -0.00441645
     atom    6 type  1   force =    -0.01000151    0.00396441    0.00185641
     atom    7 type  1   force =     0.00163593   -0.00107535    0.00025060
     atom    8 type  1   force =     0.00452794    0.00369481   -0.00006148
     atom    9 type  1   force =     0.01298372   -0.00749615    0.00022375
     atom   10 type  1   force =    -0.01335987    0.00771332    0.00022383
     atom   11 type  1   force =     0.00024732   -0.01019683    0.00058375
     atom   12 type  1   force =     0.00149025    0.00624999   -0.00254396
     atom   13 type  1   force =     0.00435445   -0.00026461   -0.00502304
     atom   14 type  1   force =    -0.00240638    0.00363876   -0.00502304
     atom   15 type  1   force =    -0.00504263    0.00150915    0.00697719
     atom   16 type  1   force =     0.00231200   -0.00505829   -0.00974372
     atom   17 type  1   force =     0.00212647   -0.00122772   -0.00245508
     atom   18 type  1   force =    -0.01180176    0.00681375    0.00185206
     atom   19 type  1   force =     0.00174925   -0.00087909    0.00025060
     atom   20 type  1   force =    -0.00093583   -0.00576872   -0.00006148
     atom   21 type  1   force =     0.00843403   -0.00667936    0.00185641
     atom   22 type  1   force =    -0.00282641    0.01107507   -0.00441645
     atom   23 type  1   force =    -0.00553661   -0.00052690   -0.00974372
     atom   24 type  1   force =     0.00382828   -0.00361247    0.00697719
     atom   25 type  1   force =    -0.00397680    0.00229601    0.00662608
     atom   26 type  1   force =     0.00397680   -0.00229601    0.00662608
     atom   27 type  1   force =    -0.00382828    0.00361247    0.00697719
     atom   28 type  1   force =     0.00553661    0.00052690   -0.00974372
     atom   29 type  1   force =     0.00282641   -0.01107507   -0.00441645
     atom   30 type  1   force =    -0.00843403    0.00667936    0.00185641
     atom   31 type  1   force =     0.00093583    0.00576872   -0.00006148
     atom   32 type  1   force =    -0.00174925    0.00087909    0.00025060
     atom   33 type  1   force =     0.01180176   -0.00681375    0.00185206
     atom   34 type  1   force =    -0.00212647    0.00122772   -0.00245508
     atom   35 type  1   force =    -0.00231200    0.00505829   -0.00974372
     atom   36 type  1   force =     0.00504263   -0.00150915    0.00697719
     atom   37 type  1   force =     0.00240638   -0.00363876   -0.00502304
     atom   38 type  1   force =    -0.00435445    0.00026461   -0.00502304
     atom   39 type  1   force =    -0.00149025   -0.00624999   -0.00254396
     atom   40 type  1   force =    -0.00024732    0.01019683    0.00058375
     atom   41 type  1   force =     0.01335987   -0.00771332    0.00022383
     atom   42 type  1   force =    -0.01298372    0.00749615    0.00022375
     atom   43 type  1   force =    -0.00452794   -0.00369481   -0.00006148
     atom   44 type  1   force =    -0.00163593    0.00107535    0.00025060
     atom   45 type  1   force =     0.01000151   -0.00396441    0.00185641
     atom   46 type  1   force =    -0.01100450   -0.00308979   -0.00441645
     atom   47 type  1   force =     0.00895438    0.00488423    0.00058375
     atom   48 type  1   force =    -0.00466753   -0.00441559   -0.00254396
     atom   49 type  1   force =     0.01011340    0.00406012    0.00076431
     atom   50 type  1   force =    -0.00154053    0.01078852    0.00076431
     atom   51 type  2   force =     0.00000000    0.00000000    0.03248429

     Total force =     0.058145     Total SCF correction =     0.000789

     number of scf cycles    =   4
     number of bfgs steps    =   3

     energy   old            =    -601.3040152702 Ry
     energy   new            =    -601.3085217934 Ry

     CASE: energy  _new < energy  _old

     new trust radius        =       0.0319690253 bohr
     new conv_thr            =       0.0000003248 Ry


ATOMIC_POSITIONS (crystal)
C        0.133335000   0.066668000   0.499998000    0   0   0
C        0.066668000   0.133334000   0.499998000    0   0   0
C        0.132815675   0.266357115   0.499991988
C        0.066668000   0.333335000   0.499998000    0   0   0
C        0.132295801   0.466351143   0.499827096
C        0.066668000   0.533336000   0.499998000    0   0   0
C        0.133327783   0.666404774   0.499987435
C        0.066668000   0.733337000   0.499998000    0   0   0
C        0.133334000   0.866670000   0.499998000    0   0   0
C        0.066667000   0.933337000   0.499998000    0   0   0
C        0.333335000   0.066668000   0.499998000    0   0   0
C        0.266357115   0.132815675   0.499991988
C        0.333713037   0.265903914   0.499105429
C        0.265903914   0.333713037   0.499105429
C        0.329162631   0.465096876   0.497026249
C        0.265115639   0.532770401   0.498329343
C        0.333124600   0.666879400   0.499994429
C        0.266855744   0.733147256   0.500246947
C        0.333599226   0.866676217   0.499987435
C        0.266667000   0.933337000   0.499998000    0   0   0
C        0.533336000   0.066668000   0.499998000    0   0   0
C        0.466350143   0.132295801   0.499827096
C        0.532771401   0.265116639   0.498329343
C        0.465095876   0.329161631   0.497026249
C        0.535337201   0.464666799   0.510616713
C        0.464666799   0.535337201   0.510616713
C        0.534908124   0.670842369   0.497026249
C        0.467232599   0.734887361   0.498329343
C        0.533653857   0.867708199   0.499827096
C        0.466668000   0.933337000   0.499998000    0   0   0
C        0.733337000   0.066668000   0.499998000    0   0   0
C        0.666404774   0.133327783   0.499987435
C        0.733148256   0.266856744   0.500246947
C        0.666879400   0.333124600   0.499994429
C        0.734888361   0.467233599   0.498329343
C        0.670841369   0.534907124   0.497026249
C        0.734100086   0.666290963   0.499105429
C        0.666290963   0.734100086   0.499105429
C        0.733646885   0.867188325   0.499991988
C        0.666669000   0.933337000   0.499998000    0   0   0
C        0.933337000   0.066668000   0.499998000    0   0   0
C        0.866670000   0.133334000   0.499998000    0   0   0
C        0.933336000   0.266667000   0.499998000    0   0   0
C        0.866676217   0.333599226   0.499987435
C        0.933336000   0.466668000   0.499998000    0   0   0
C        0.867708199   0.533652857   0.499827096
C        0.933336000   0.666669000   0.499998000    0   0   0
C        0.867188325   0.733646885   0.499991988
C        0.933336000   0.866670000   0.499998000    0   0   0
C        0.866669000   0.933337000   0.499998000    0   0   0
O        0.500000000   0.500000000   0.599879389



     Writing output data file espresso.save
     Check: negative starting charge=   -0.000368
     NEW-OLD atomic charge density approx. for the potential
     Check: negative starting charge=   -0.000368

     negative rho (up, down):  2.462E-04 0.000E+00

     total cpu time spent up to now is      193.6 secs

     Self-consistent Calculation

     iteration #  1     ecut=    25.00 Ry     beta=0.70
     Davidson diagonalization with overlap
     ethr =  1.00E-06,  avg # of iterations =  4.0

     negative rho (up, down):  2.480E-04 0.000E+00

     total cpu time spent up to now is      198.9 secs

     total energy              =    -601.31067480 Ry
     Harris-Foulkes estimate   =    -601.31094935 Ry
     estimated scf accuracy    <       0.00056746 Ry

     iteration #  2     ecut=    25.00 Ry     beta=0.70
     Davidson diagonalization with overlap
     ethr =  2.75E-07,  avg # of iterations =  3.0

     negative rho (up, down):  3.868E-04 0.000E+00

     total cpu time spent up to now is      204.3 secs

     total energy              =    -601.31070270 Ry
     Harris-Foulkes estimate   =    -601.31090631 Ry
     estimated scf accuracy    <       0.00037864 Ry

     iteration #  3     ecut=    25.00 Ry     beta=0.70
     Davidson diagonalization with overlap
     ethr =  1.84E-07,  avg # of iterations =  3.0

     negative rho (up, down):  3.171E-04 0.000E+00

     total cpu time spent up to now is      208.0 secs

     total energy              =    -601.31078854 Ry
     Harris-Foulkes estimate   =    -601.31084821 Ry
     estimated scf accuracy    <       0.00013709 Ry

     iteration #  4     ecut=    25.00 Ry     beta=0.70
     Davidson diagonalization with overlap
     ethr =  6.65E-08,  avg # of iterations =  3.0

     negative rho (up, down):  2.664E-04 0.000E+00

     total cpu time spent up to now is      213.0 secs

     total energy              =    -601.31081419 Ry
     Harris-Foulkes estimate   =    -601.31082936 Ry
     estimated scf accuracy    <       0.00003818 Ry

     iteration #  5     ecut=    25.00 Ry     beta=0.70
     Davidson diagonalization with overlap
     ethr =  1.85E-08,  avg # of iterations =  2.0

     negative rho (up, down):  2.548E-04 0.000E+00

     total cpu time spent up to now is      216.4 secs

     total energy              =    -601.31082094 Ry
     Harris-Foulkes estimate   =    -601.31082356 Ry
     estimated scf accuracy    <       0.00000659 Ry

     iteration #  6     ecut=    25.00 Ry     beta=0.70
     Davidson diagonalization with overlap
     ethr =  3.20E-09,  avg # of iterations =  3.0

     negative rho (up, down):  2.511E-04 0.000E+00

     total cpu time spent up to now is      221.1 secs

     total energy              =    -601.31082225 Ry
     Harris-Foulkes estimate   =    -601.31082260 Ry
     estimated scf accuracy    <       0.00000086 Ry

     iteration #  7     ecut=    25.00 Ry     beta=0.70
     Davidson diagonalization with overlap
     ethr =  4.18E-10,  avg # of iterations =  3.0

     negative rho (up, down):  2.508E-04 0.000E+00

     total cpu time spent up to now is      226.0 secs

     total energy              =    -601.31082240 Ry
     Harris-Foulkes estimate   =    -601.31082260 Ry
     estimated scf accuracy    <       0.00000056 Ry

     iteration #  8     ecut=    25.00 Ry     beta=0.70
     Davidson diagonalization with overlap
     ethr =  2.70E-10,  avg # of iterations =  2.0

     negative rho (up, down):  2.508E-04 0.000E+00

     total cpu time spent up to now is      229.2 secs

     End of self-consistent calculation

          k = 0.0000 0.0000 0.0000 ( 13051 PWs)   bands (ev):

   -24.9054 -21.0300 -20.2182 -20.1965 -20.1954 -20.1628 -20.1474 -19.5965
   -18.3768 -18.3765 -18.3623 -18.3095 -18.3070 -17.9502 -17.4912 -17.4720
   -17.4308 -17.4245 -17.4027 -16.7431 -15.3084 -15.2860 -15.2712 -15.2672
   -15.2491 -14.8906 -14.3710 -14.3142 -14.3050 -14.2925 -14.2706 -14.0564
   -13.0531 -12.9516 -12.9490 -12.9322 -12.8971 -12.8280 -10.7797 -10.7199
   -10.6562 -10.5945 -10.5680 -10.5276 -10.4940 -10.4878 -10.4848 -10.4631
   -10.4364 -10.4320  -9.3115  -9.2258  -9.1486  -9.1316  -9.1188  -9.1146
    -9.0278  -8.6844  -8.2900  -8.1999  -8.1173  -8.0832  -8.0728  -7.8545
    -7.8415  -7.8359  -7.8248  -7.7981  -7.7964  -7.7866  -7.7709  -7.7679
    -7.7466  -7.7342  -7.7018  -7.2665  -6.5744  -6.3144  -6.2459  -6.1607
    -6.1447  -6.1304  -5.9675  -5.9497  -5.9454  -5.8886  -5.8429  -5.6459
    -5.2822  -5.1149  -5.0894  -5.0527  -5.0231  -4.6525  -4.6354  -4.5153
    -3.9494  -3.5367  -3.0831  -3.0790  -3.0527  -3.0409  -2.4716  -1.0151
    -0.2687  -0.2309  -0.2127  -0.1216   0.2238   0.9616   1.6018   1.6352
     1.6425   1.7631   1.7777   2.0669   2.6226   2.7873   3.0023   3.0062
     3.0080   3.0386   3.0497   3.1869

     the Fermi energy is    -1.6866 ev

!    total energy              =    -601.31082248 Ry
     Harris-Foulkes estimate   =    -601.31082250 Ry
     estimated scf accuracy    <       0.00000001 Ry

     The total energy is the sum of the following terms:

     one-electron contribution =   -3788.10696695 Ry
     hartree contribution      =    1931.38975797 Ry
     xc contribution           =    -182.71296012 Ry
     ewald contribution        =    1438.11934661 Ry
     smearing contrib. (-TS)   =      -0.00000000 Ry

     convergence has been achieved in   8 iterations

     Forces acting on atoms (cartesian axes, Ry/au):

     atom    1 type  1   force =     0.00138351   -0.01003575    0.00047472
     atom    2 type  1   force =    -0.00938296   -0.00381972    0.00047472
     atom    3 type  1   force =     0.00197201    0.00348895   -0.00315748
     atom    4 type  1   force =    -0.00795938   -0.00416242   -0.00002819
     atom    5 type  1   force =     0.00525422   -0.00075346   -0.00491383
     atom    6 type  1   force =    -0.00807335    0.00394162    0.00147827
     atom    7 type  1   force =    -0.00469508   -0.00132734    0.00055561
     atom    8 type  1   force =     0.00446974    0.00289928    0.00025761
     atom    9 type  1   force =     0.01283717   -0.00741154    0.00024074
     atom   10 type  1   force =    -0.01312168    0.00757581    0.00044944
     atom   11 type  1   force =     0.00037493   -0.00897423   -0.00002819
     atom   12 type  1   force =     0.00203551    0.00345229   -0.00315748
     atom   13 type  1   force =     0.00222443    0.00331727   -0.00336450
     atom   14 type  1   force =     0.00176063    0.00358505   -0.00336450
     atom   15 type  1   force =    -0.00203541   -0.00290264    0.00689660
     atom   16 type  1   force =     0.00372291    0.00341429   -0.00606716
     atom   17 type  1   force =    -0.00117338    0.00067745   -0.00461097
     atom   18 type  1   force =     0.00197165   -0.00113833    0.00109566
     atom   19 type  1   force =    -0.00119803    0.00472973    0.00055561
     atom   20 type  1   force =    -0.00027598   -0.00532055    0.00025761
     atom   21 type  1   force =     0.00745022   -0.00502092    0.00147827
     atom   22 type  1   force =    -0.00327963    0.00417355   -0.00491383
     atom   23 type  1   force =     0.00109541    0.00493128   -0.00606716
     atom   24 type  1   force =    -0.00149605   -0.00321404    0.00689660
     atom   25 type  1   force =    -0.00423609    0.00244571    0.00601250
     atom   26 type  1   force =     0.00423609   -0.00244571    0.00601250
     atom   27 type  1   force =     0.00149605    0.00321404    0.00689660
     atom   28 type  1   force =    -0.00109541   -0.00493128   -0.00606716
     atom   29 type  1   force =     0.00327963   -0.00417355   -0.00491383
     atom   30 type  1   force =    -0.00745022    0.00502092    0.00147827
     atom   31 type  1   force =     0.00027598    0.00532055    0.00025761
     atom   32 type  1   force =     0.00119803   -0.00472973    0.00055561
     atom   33 type  1   force =    -0.00197165    0.00113833    0.00109566
     atom   34 type  1   force =     0.00117338   -0.00067745   -0.00461097
     atom   35 type  1   force =    -0.00372291   -0.00341429   -0.00606716
     atom   36 type  1   force =     0.00203541    0.00290264    0.00689660
     atom   37 type  1   force =    -0.00176063   -0.00358505   -0.00336450
     atom   38 type  1   force =    -0.00222443   -0.00331727   -0.00336450
     atom   39 type  1   force =    -0.00203551   -0.00345229   -0.00315748
     atom   40 type  1   force =    -0.00037493    0.00897423   -0.00002819
     atom   41 type  1   force =     0.01312168   -0.00757581    0.00044944
     atom   42 type  1   force =    -0.01283717    0.00741154    0.00024074
     atom   43 type  1   force =    -0.00446974   -0.00289928    0.00025761
     atom   44 type  1   force =     0.00469508    0.00132734    0.00055561
     atom   45 type  1   force =     0.00807335   -0.00394162    0.00147827
     atom   46 type  1   force =    -0.00525422    0.00075346   -0.00491383
     atom   47 type  1   force =     0.00795938    0.00416242   -0.00002819
     atom   48 type  1   force =    -0.00197201   -0.00348895   -0.00315748
     atom   49 type  1   force =     0.00938296    0.00381972    0.00047472
     atom   50 type  1   force =    -0.00138351    0.01003575    0.00047472
     atom   51 type  2   force =     0.00000000    0.00000000    0.02509867

     Total force =     0.042636     Total SCF correction =     0.000200

     number of scf cycles    =   5
     number of bfgs steps    =   4

     energy   old            =    -601.3085217934 Ry
     energy   new            =    -601.3108224842 Ry

     CASE: energy  _new < energy  _old

     new trust radius        =       0.0351659278 bohr
     new conv_thr            =       0.0000002301 Ry


ATOMIC_POSITIONS (crystal)
C        0.133335000   0.066668000   0.499998000    0   0   0
C        0.066668000   0.133334000   0.499998000    0   0   0
C        0.132927228   0.266458408   0.499854639
C        0.066668000   0.333335000   0.499998000    0   0   0
C        0.132436384   0.466350666   0.499588642
C        0.066668000   0.533336000   0.499998000    0   0   0
C        0.133220605   0.666392476   0.500006171
C        0.066668000   0.733337000   0.499998000    0   0   0
C        0.133334000   0.866670000   0.499998000    0   0   0
C        0.066667000   0.933337000   0.499998000    0   0   0
C        0.333335000   0.066668000   0.499998000    0   0   0
C        0.266458408   0.132927228   0.499854639
C        0.333803583   0.266002441   0.498834028
C        0.266002441   0.333803583   0.498834028
C        0.329228507   0.465166270   0.497247289
C        0.265182459   0.532861029   0.497827074
C        0.333079188   0.666924812   0.499824441
C        0.266781396   0.733221604   0.500333980
C        0.333611524   0.866783395   0.500006171
C        0.266667000   0.933337000   0.499998000    0   0   0
C        0.533336000   0.066668000   0.499998000    0   0   0
C        0.466349666   0.132436384   0.499588642
C        0.532862029   0.265183459   0.497827074
C        0.465165270   0.329227507   0.497247289
C        0.535280692   0.464723308   0.511531834
C        0.464723308   0.535280692   0.511531834
C        0.534838730   0.670776493   0.497247289
C        0.467141971   0.734820541   0.497827074
C        0.533654334   0.867567616   0.499588642
C        0.466668000   0.933337000   0.499998000    0   0   0
C        0.733337000   0.066668000   0.499998000    0   0   0
C        0.666392476   0.133220605   0.500006171
C        0.733222604   0.266782396   0.500333980
C        0.666924812   0.333079188   0.499824441
C        0.734821541   0.467142971   0.497827074
C        0.670775493   0.534837730   0.497247289
C        0.734001559   0.666200417   0.498834028
C        0.666200417   0.734001559   0.498834028
C        0.733545592   0.867076772   0.499854639
C        0.666669000   0.933337000   0.499998000    0   0   0
C        0.933337000   0.066668000   0.499998000    0   0   0
C        0.866670000   0.133334000   0.499998000    0   0   0
C        0.933336000   0.266667000   0.499998000    0   0   0
C        0.866783395   0.333611524   0.500006171
C        0.933336000   0.466668000   0.499998000    0   0   0
C        0.867567616   0.533653334   0.499588642
C        0.933336000   0.666669000   0.499998000    0   0   0
C        0.867076772   0.733545592   0.499854639
C        0.933336000   0.866670000   0.499998000    0   0   0
C        0.866669000   0.933337000   0.499998000    0   0   0
O        0.500000000   0.500000000   0.601208604



     Writing output data file espresso.save
     Check: negative starting charge=   -0.000368
     NEW-OLD atomic charge density approx. for the potential
     Check: negative starting charge=   -0.000367

     negative rho (up, down):  2.452E-04 0.000E+00

     total cpu time spent up to now is      238.6 secs

     Self-consistent Calculation

     iteration #  1     ecut=    25.00 Ry     beta=0.70
     Davidson diagonalization with overlap
     ethr =  1.00E-06,  avg # of iterations =  4.0

     negative rho (up, down):  2.472E-04 0.000E+00

     total cpu time spent up to now is      245.0 secs

     total energy              =    -601.31260333 Ry
     Harris-Foulkes estimate   =    -601.31281906 Ry
     estimated scf accuracy    <       0.00051471 Ry

     iteration #  2     ecut=    25.00 Ry     beta=0.70
     Davidson diagonalization with overlap
     ethr =  2.50E-07,  avg # of iterations =  3.0

     negative rho (up, down):  3.757E-04 0.000E+00

     total cpu time spent up to now is      250.5 secs

     total energy              =    -601.31261436 Ry
     Harris-Foulkes estimate   =    -601.31276831 Ry
     estimated scf accuracy    <       0.00027816 Ry

     iteration #  3     ecut=    25.00 Ry     beta=0.70
     Davidson diagonalization with overlap
     ethr =  1.35E-07,  avg # of iterations =  3.0

     negative rho (up, down):  3.049E-04 0.000E+00

     total cpu time spent up to now is      255.5 secs

     total energy              =    -601.31268435 Ry
     Harris-Foulkes estimate   =    -601.31274197 Ry
     estimated scf accuracy    <       0.00014043 Ry

     iteration #  4     ecut=    25.00 Ry     beta=0.70
     Davidson diagonalization with overlap
     ethr =  6.82E-08,  avg # of iterations =  3.0

     negative rho (up, down):  2.641E-04 0.000E+00

     total cpu time spent up to now is      258.8 secs

     total energy              =    -601.31270974 Ry
     Harris-Foulkes estimate   =    -601.31271566 Ry
     estimated scf accuracy    <       0.00001275 Ry

     iteration #  5     ecut=    25.00 Ry     beta=0.70
     Davidson diagonalization with overlap
     ethr =  6.19E-09,  avg # of iterations =  3.0

     negative rho (up, down):  2.515E-04 0.000E+00

     total cpu time spent up to now is      263.9 secs

     total energy              =    -601.31271256 Ry
     Harris-Foulkes estimate   =    -601.31271434 Ry
     estimated scf accuracy    <       0.00000487 Ry

     iteration #  6     ecut=    25.00 Ry     beta=0.70
     Davidson diagonalization with overlap
     ethr =  2.36E-09,  avg # of iterations =  2.0

     negative rho (up, down):  2.505E-04 0.000E+00

     total cpu time spent up to now is      269.0 secs

     total energy              =    -601.31271348 Ry
     Harris-Foulkes estimate   =    -601.31271363 Ry
     estimated scf accuracy    <       0.00000035 Ry

     iteration #  7     ecut=    25.00 Ry     beta=0.70
     Davidson diagonalization with overlap
     ethr =  1.71E-10,  avg # of iterations =  3.0

     negative rho (up, down):  2.505E-04 0.000E+00

     total cpu time spent up to now is      274.0 secs

     End of self-consistent calculation

          k = 0.0000 0.0000 0.0000 ( 13051 PWs)   bands (ev):

   -24.8332 -21.0311 -20.2184 -20.1972 -20.1953 -20.1615 -20.1503 -19.6034
   -18.3767 -18.3723 -18.3611 -18.3117 -18.3083 -17.9530 -17.4870 -17.4738
   -17.4337 -17.4241 -17.4039 -16.7524 -15.3032 -15.2881 -15.2727 -15.2664
   -15.2500 -14.8967 -14.3700 -14.3120 -14.3044 -14.2904 -14.2718 -14.0644
   -13.0470 -12.9517 -12.9491 -12.9330 -12.8989 -12.8316 -10.7753 -10.7185
   -10.6484 -10.5957 -10.5690 -10.5271 -10.4929 -10.4896 -10.4847 -10.4639
   -10.4393 -10.4346  -9.3078  -9.2222  -9.1520  -9.1337  -9.1187  -9.1161
    -9.0283  -8.6654  -8.2878  -8.2014  -8.1172  -8.0823  -8.0759  -7.8629
    -7.8427  -7.8380  -7.8209  -7.7973  -7.7966  -7.7863  -7.7721  -7.7703
    -7.7474  -7.7468  -7.7056  -7.2494  -6.5746  -6.3191  -6.2457  -6.1620
    -6.1484  -6.1274  -5.9677  -5.9508  -5.9433  -5.8847  -5.8508  -5.6486
    -5.2814  -5.1080  -5.0890  -5.0547  -5.0238  -4.6599  -4.6377  -4.5195
    -3.9576  -3.5371  -3.0839  -3.0789  -3.0525  -3.0441  -2.4776  -1.0219
    -0.2687  -0.2294  -0.2160  -0.1257   0.2192   0.9521   1.5993   1.6341
     1.6389   1.7621   1.7749   2.0636   2.6190   2.7826   3.0014   3.0060
     3.0079   3.0370   3.0494   3.1857

     the Fermi energy is    -1.6746 ev

!    total energy              =    -601.31271350 Ry
     Harris-Foulkes estimate   =    -601.31271358 Ry
     estimated scf accuracy    <       0.00000009 Ry

     The total energy is the sum of the following terms:

     one-electron contribution =   -3786.51770143 Ry
     hartree contribution      =    1930.58761348 Ry
     xc contribution           =    -182.69989354 Ry
     ewald contribution        =    1437.31726799 Ry
     smearing contrib. (-TS)   =      -0.00000000 Ry

     convergence has been achieved in   7 iterations

     Forces acting on atoms (cartesian axes, Ry/au):

     atom    1 type  1   force =     0.00207866   -0.00898203    0.00004484
     atom    2 type  1   force =    -0.00881800   -0.00269084    0.00004484
     atom    3 type  1   force =     0.00095305    0.00134235   -0.00351288
     atom    4 type  1   force =    -0.00637390   -0.00374525   -0.00100007
     atom    5 type  1   force =     0.00144118   -0.00008772   -0.00485558
     atom    6 type  1   force =    -0.00718648    0.00327149    0.00089255
     atom    7 type  1   force =    -0.00292961   -0.00109170    0.00081411
     atom    8 type  1   force =     0.00320806    0.00305141    0.00068606
     atom    9 type  1   force =     0.01283647   -0.00741114    0.00024989
     atom   10 type  1   force =    -0.01299029    0.00749994    0.00069464
     atom   11 type  1   force =    -0.00005653   -0.00739259   -0.00100007
     atom   12 type  1   force =     0.00068599    0.00149654   -0.00351288
     atom   13 type  1   force =     0.00238714    0.00262548   -0.00165696
     atom   14 type  1   force =     0.00108016    0.00338006   -0.00165696
     atom   15 type  1   force =     0.00009232   -0.00227518    0.00645299
     atom   16 type  1   force =     0.00434181    0.00275572   -0.00283700
     atom   17 type  1   force =    -0.00175011    0.00101043   -0.00595176
     atom   18 type  1   force =     0.00308699   -0.00178227    0.00006444
     atom   19 type  1   force =    -0.00051937    0.00308297    0.00081411
     atom   20 type  1   force =    -0.00103857   -0.00430397    0.00068606
     atom   21 type  1   force =     0.00642643   -0.00458792    0.00089255
     atom   22 type  1   force =    -0.00079655    0.00120424   -0.00485558
     atom   23 type  1   force =     0.00021562    0.00513797   -0.00283700
     atom   24 type  1   force =    -0.00201652   -0.00105764    0.00645299
     atom   25 type  1   force =    -0.00263819    0.00152316    0.00595251
     atom   26 type  1   force =     0.00263819   -0.00152316    0.00595251
     atom   27 type  1   force =     0.00201652    0.00105764    0.00645299
     atom   28 type  1   force =    -0.00021562   -0.00513797   -0.00283700
     atom   29 type  1   force =     0.00079655   -0.00120424   -0.00485558
     atom   30 type  1   force =    -0.00642643    0.00458792    0.00089255
     atom   31 type  1   force =     0.00103857    0.00430397    0.00068606
     atom   32 type  1   force =     0.00051937   -0.00308297    0.00081411
     atom   33 type  1   force =    -0.00308699    0.00178227    0.00006444
     atom   34 type  1   force =     0.00175011   -0.00101043   -0.00595176
[...]
     atom   25 type  1   force =     0.00072370   -0.00041783   -0.00013653
     atom   26 type  1   force =    -0.00072370    0.00041783   -0.00013653
     atom   27 type  1   force =     0.00001799    0.00013215    0.00068822
     atom   28 type  1   force =    -0.00019578    0.00044597    0.00016003
     atom   29 type  1   force =    -0.00006581    0.00001346   -0.00114308
     atom   30 type  1   force =    -0.00405309    0.00084888   -0.00117475
     atom   31 type  1   force =     0.00123010    0.00412388   -0.00263399
     atom   32 type  1   force =     0.00014737   -0.00007233   -0.00004625
     atom   33 type  1   force =     0.00018016   -0.00010402   -0.00049374
     atom   34 type  1   force =     0.00030995   -0.00017895    0.00035410
     atom   35 type  1   force =     0.00048411    0.00005344    0.00016003
     atom   36 type  1   force =     0.00010545    0.00008165    0.00068822
     atom   37 type  1   force =    -0.00001636    0.00013506   -0.00015097
     atom   38 type  1   force =     0.00012514    0.00005336   -0.00015097
     atom   39 type  1   force =     0.00007154    0.00042473   -0.00055350
     atom   40 type  1   force =     0.00077498    0.00194788    0.00477193
     atom   41 type  1   force =     0.01184877   -0.00684089   -0.00494988
     atom   42 type  1   force =    -0.01238457    0.00715024    0.00123358
     atom   43 type  1   force =    -0.00295634   -0.00312724   -0.00263399
     atom   44 type  1   force =     0.00013633   -0.00009146   -0.00004625
     atom   45 type  1   force =     0.00276170   -0.00308564   -0.00117475
     atom   46 type  1   force =     0.00004456   -0.00005026   -0.00114308
     atom   47 type  1   force =     0.00129942    0.00164509    0.00477193
     atom   48 type  1   force =     0.00033206    0.00027432   -0.00055350
     atom   49 type  1   force =     0.00639994   -0.00106916    0.00238441
     atom   50 type  1   force =    -0.00412589    0.00500793    0.00238441
     atom   51 type  2   force =     0.00000000    0.00000000   -0.00122324

     Total force =     0.003811     Total SCF correction =     0.000146

     number of scf cycles    =  27
     number of bfgs steps    =  26

     energy   old            =    -601.3230793743 Ry
     energy   new            =    -601.3231309127 Ry

     CASE: energy  _new < energy  _old

     new trust radius        =       0.0027084875 bohr
     new conv_thr            =       0.0000000100 Ry


ATOMIC_POSITIONS (crystal)
C        0.133335000   0.066668000   0.499998000    0   0   0
C        0.066668000   0.133334000   0.499998000    0   0   0
C        0.133262872   0.266695305   0.501963787
C        0.066668000   0.333335000   0.499998000    0   0   0
C        0.132864303   0.466442629   0.500661583
C        0.066668000   0.533336000   0.499998000    0   0   0
C        0.133161594   0.666390897   0.500392909
C        0.066668000   0.733337000   0.499998000    0   0   0
C        0.133334000   0.866670000   0.499998000    0   0   0
C        0.066667000   0.933337000   0.499998000    0   0   0
C        0.333335000   0.066668000   0.499998000    0   0   0
C        0.266695305   0.133262872   0.501963787
C        0.334120046   0.266353317   0.509031322
C        0.266353317   0.334120046   0.509031322
C        0.329845234   0.465391196   0.513225275
C        0.265838643   0.532954135   0.505102286
C        0.333112665   0.666891335   0.504689303
C        0.266855865   0.733147135   0.501522290
C        0.333613103   0.866842406   0.500392909
C        0.266667000   0.933337000   0.499998000    0   0   0
C        0.533336000   0.066668000   0.499998000    0   0   0
C        0.466441629   0.132864303   0.500661583
C        0.532955135   0.265839643   0.505102286
C        0.465390196   0.329844234   0.513225275
C        0.535431439   0.464572561   0.532793978
C        0.464572561   0.535431439   0.532793978
C        0.534613804   0.670159766   0.513225275
C        0.467048865   0.734164357   0.505102286
C        0.533562371   0.867139697   0.500661583
C        0.466668000   0.933337000   0.499998000    0   0   0
C        0.733337000   0.066668000   0.499998000    0   0   0
C        0.666390897   0.133161594   0.500392909
C        0.733148135   0.266856865   0.501522290
C        0.666891335   0.333112665   0.504689303
C        0.734165357   0.467049865   0.505102286
C        0.670158766   0.534612804   0.513225275
C        0.733650683   0.665883954   0.509031322
C        0.665883954   0.733650683   0.509031322
C        0.733308695   0.866741128   0.501963787
C        0.666669000   0.933337000   0.499998000    0   0   0
C        0.933337000   0.066668000   0.499998000    0   0   0
C        0.866670000   0.133334000   0.499998000    0   0   0
C        0.933336000   0.266667000   0.499998000    0   0   0
C        0.866842406   0.333613103   0.500392909
C        0.933336000   0.466668000   0.499998000    0   0   0
C        0.867139697   0.533561371   0.500661583
C        0.933336000   0.666669000   0.499998000    0   0   0
C        0.866741128   0.733308695   0.501963787
C        0.933336000   0.866670000   0.499998000    0   0   0
C        0.866669000   0.933337000   0.499998000    0   0   0
O        0.500000000   0.500000000   0.622650018



     Writing output data file espresso.save
     Check: negative starting charge=   -0.000382
     NEW-OLD atomic charge density approx. for the potential
     Check: negative starting charge=   -0.000382

     negative rho (up, down):  2.514E-04 0.000E+00

     total cpu time spent up to now is     1280.3 secs

     Self-consistent Calculation

     iteration #  1     ecut=    25.00 Ry     beta=0.70
     Davidson diagonalization with overlap
     ethr =  1.00E-06,  avg # of iterations =  2.0

     Threshold (ethr) on eigenvalues was too large:
     Diagonalizing with lowered threshold

     Davidson diagonalization with overlap
     ethr =  5.32E-09,  avg # of iterations =  3.0

     negative rho (up, down):  2.512E-04 0.000E+00

     total cpu time spent up to now is     1288.7 secs

     total energy              =    -601.32314585 Ry
     Harris-Foulkes estimate   =    -601.32315195 Ry
     estimated scf accuracy    <       0.00001119 Ry

     iteration #  2     ecut=    25.00 Ry     beta=0.70
     Davidson diagonalization with overlap
     ethr =  5.43E-09,  avg # of iterations =  2.0

     negative rho (up, down):  2.517E-04 0.000E+00

     total cpu time spent up to now is     1292.4 secs

     total energy              =    -601.32314711 Ry
     Harris-Foulkes estimate   =    -601.32314971 Ry
     estimated scf accuracy    <       0.00000436 Ry

     iteration #  3     ecut=    25.00 Ry     beta=0.70
     Davidson diagonalization with overlap
     ethr =  2.12E-09,  avg # of iterations =  3.0

     negative rho (up, down):  2.516E-04 0.000E+00

     total cpu time spent up to now is     1297.5 secs

     total energy              =    -601.32314799 Ry
     Harris-Foulkes estimate   =    -601.32314908 Ry
     estimated scf accuracy    <       0.00000241 Ry

     iteration #  4     ecut=    25.00 Ry     beta=0.70
     Davidson diagonalization with overlap
     ethr =  1.17E-09,  avg # of iterations =  3.0

     negative rho (up, down):  2.512E-04 0.000E+00

     total cpu time spent up to now is     1302.5 secs

     total energy              =    -601.32314848 Ry
     Harris-Foulkes estimate   =    -601.32314874 Ry
     estimated scf accuracy    <       0.00000068 Ry

     iteration #  5     ecut=    25.00 Ry     beta=0.70
     Davidson diagonalization with overlap
     ethr =  3.28E-10,  avg # of iterations =  2.0

     negative rho (up, down):  2.511E-04 0.000E+00

     total cpu time spent up to now is     1307.3 secs

     total energy              =    -601.32314860 Ry
     Harris-Foulkes estimate   =    -601.32314862 Ry
     estimated scf accuracy    <       0.00000005 Ry

     iteration #  6     ecut=    25.00 Ry     beta=0.70
     Davidson diagonalization with overlap
     ethr =  2.55E-11,  avg # of iterations =  3.0

     negative rho (up, down):  2.511E-04 0.000E+00

     total cpu time spent up to now is     1312.3 secs

     total energy              =    -601.32314861 Ry
     Harris-Foulkes estimate   =    -601.32314862 Ry
     estimated scf accuracy    <       0.00000003 Ry

     iteration #  7     ecut=    25.00 Ry     beta=0.70
     Davidson diagonalization with overlap
     ethr =  1.31E-11,  avg # of iterations =  2.0

     negative rho (up, down):  2.511E-04 0.000E+00

     total cpu time spent up to now is     1316.9 secs

     End of self-consistent calculation

          k = 0.0000 0.0000 0.0000 ( 13051 PWs)   bands (ev):

   -24.7450 -21.0316 -20.2049 -20.1850 -20.1822 -20.1580 -20.1537 -19.6400
   -18.3641 -18.3598 -18.3441 -18.3138 -18.3081 -17.9692 -17.4719 -17.4633
   -17.4329 -17.4198 -17.3986 -16.8018 -15.3089 -15.2835 -15.2686 -15.2559
   -15.2446 -14.9192 -14.3677 -14.2984 -14.2948 -14.2771 -14.2717 -14.0691
   -13.0399 -12.9593 -12.9377 -12.9307 -12.9070 -12.8178 -10.8213 -10.7190
   -10.6458 -10.5870 -10.5607 -10.5279 -10.4970 -10.4849 -10.4727 -10.4621
   -10.4473 -10.4403  -9.3103  -9.2205  -9.1806  -9.1462  -9.1080  -9.1073
    -9.0248  -8.6569  -8.3114  -8.2267  -8.1072  -8.0846  -8.0810  -7.9337
    -7.8648  -7.8431  -7.8219  -7.8043  -7.8037  -7.7879  -7.7782  -7.7637
    -7.7576  -7.7308  -7.7004  -7.2562  -6.5748  -6.2974  -6.2692  -6.1674
    -6.1653  -6.1251  -5.9386  -5.9355  -5.9285  -5.8990  -5.8826  -5.6668
    -5.2589  -5.0960  -5.0773  -5.0535  -5.0230  -4.6796  -4.6401  -4.5823
    -4.0505  -3.5235  -3.0769  -3.0767  -3.0488  -3.0454  -2.5317  -1.0241
    -0.2684  -0.2359  -0.2322  -0.1436   0.1962   0.9437   1.5763   1.6145
     1.6317   1.7562   1.7565   2.0439   2.6122   2.7572   3.0006   3.0065
     3.0080   3.0237   3.0422   3.1794

     the Fermi energy is    -1.8863 ev

!    total energy              =    -601.32314861 Ry
     Harris-Foulkes estimate   =    -601.32314862 Ry
     estimated scf accuracy    <          3.9E-09 Ry

     The total energy is the sum of the following terms:

     one-electron contribution =   -3768.09339174 Ry
     hartree contribution      =    1921.28998049 Ry
     xc contribution           =    -182.59624977 Ry
     ewald contribution        =    1428.07651241 Ry
     smearing contrib. (-TS)   =      -0.00000000 Ry

     convergence has been achieved in   7 iterations

     Forces acting on atoms (cartesian axes, Ry/au):

     atom    1 type  1   force =     0.00413036   -0.00504975    0.00222298
     atom    2 type  1   force =    -0.00643839    0.00105212    0.00222298
     atom    3 type  1   force =     0.00006271   -0.00000594   -0.00028884
     atom    4 type  1   force =    -0.00136386   -0.00166190    0.00423273
     atom    5 type  1   force =    -0.00013846   -0.00006505   -0.00024469
     atom    6 type  1   force =    -0.00291968    0.00315938   -0.00150311
     atom    7 type  1   force =    -0.00000079   -0.00001073   -0.00009806
     atom    8 type  1   force =     0.00281696    0.00315028   -0.00259289
     atom    9 type  1   force =     0.01234817   -0.00712922    0.00124542
     atom   10 type  1   force =    -0.01183528    0.00683310   -0.00486160
     atom   11 type  1   force =    -0.00075732   -0.00201209    0.00423273
     atom   12 type  1   force =    -0.00003650    0.00005134   -0.00028884
     atom   13 type  1   force =    -0.00004136   -0.00041990    0.00001919
     atom   14 type  1   force =    -0.00034297   -0.00024577    0.00001919
     atom   15 type  1   force =    -0.00044022   -0.00011763    0.00038221
     atom   16 type  1   force =    -0.00003956    0.00002859   -0.00017092
     atom   17 type  1   force =    -0.00001345    0.00000777    0.00020033
     atom   18 type  1   force =    -0.00032585    0.00018813   -0.00013039
     atom   19 type  1   force =     0.00000890    0.00000605   -0.00009806
     atom   20 type  1   force =    -0.00131974   -0.00401470   -0.00259289
     atom   21 type  1   force =     0.00419595   -0.00094883   -0.00150311
     atom   22 type  1   force =     0.00001289   -0.00015244   -0.00024469
     atom   23 type  1   force =     0.00004454   -0.00001997   -0.00017092
     atom   24 type  1   force =     0.00011824   -0.00044006    0.00038221
     atom   25 type  1   force =    -0.00003366    0.00001943    0.00004557
     atom   26 type  1   force =     0.00003366   -0.00001943    0.00004557
     atom   27 type  1   force =    -0.00011824    0.00044006    0.00038221
     atom   28 type  1   force =    -0.00004454    0.00001997   -0.00017092
     atom   29 type  1   force =    -0.00001289    0.00015244   -0.00024469
     atom   30 type  1   force =    -0.00419595    0.00094883   -0.00150311
     atom   31 type  1   force =     0.00131974    0.00401470   -0.00259289
     atom   32 type  1   force =    -0.00000890   -0.00000605   -0.00009806
     atom   33 type  1   force =     0.00032585   -0.00018813   -0.00013039
     atom   34 type  1   force =     0.00001345   -0.00000777    0.00020033
     atom   35 type  1   force =     0.00003956   -0.00002859   -0.00017092
     atom   36 type  1   force =     0.00044022    0.00011763    0.00038221
     atom   37 type  1   force =     0.00034297    0.00024577    0.00001919
     atom   38 type  1   force =     0.00004136    0.00041990    0.00001919
     atom   39 type  1   force =     0.00003650   -0.00005134   -0.00028884
     atom   40 type  1   force =     0.00075732    0.00201209    0.00423273
     atom   41 type  1   force =     0.01183528   -0.00683310   -0.00486160
     atom   42 type  1   force =    -0.01234817    0.00712922    0.00124542
     atom   43 type  1   force =    -0.00281696   -0.00315028   -0.00259289
     atom   44 type  1   force =     0.00000079    0.00001073   -0.00009806
     atom   45 type  1   force =     0.00291968   -0.00315938   -0.00150311
     atom   46 type  1   force =     0.00013846    0.00006505   -0.00024469
     atom   47 type  1   force =     0.00136386    0.00166190    0.00423273
     atom   48 type  1   force =    -0.00006271    0.00000594   -0.00028884
     atom   49 type  1   force =     0.00643839   -0.00105212    0.00222298
     atom   50 type  1   force =    -0.00413036    0.00504975    0.00222298
     atom   51 type  2   force =     0.00000000    0.00000000   -0.00083304

     Total force =     0.002019     Total SCF correction =     0.000133

     bfgs converged in  28 scf cycles and  27 bfgs steps
     (criteria: energy <  1.0E-04 Ry, force <  1.0E-03 Ry/Bohr)

     End of BFGS Geometry Optimization

     Final energy   =    -601.3231486121 Ry
Begin final coordinates

ATOMIC_POSITIONS (crystal)
C        0.133335000   0.066668000   0.499998000    0   0   0
C        0.066668000   0.133334000   0.499998000    0   0   0
C        0.133262872   0.266695305   0.501963787
C        0.066668000   0.333335000   0.499998000    0   0   0
C        0.132864303   0.466442629   0.500661583
C        0.066668000   0.533336000   0.499998000    0   0   0
C        0.133161594   0.666390897   0.500392909
C        0.066668000   0.733337000   0.499998000    0   0   0
C        0.133334000   0.866670000   0.499998000    0   0   0
C        0.066667000   0.933337000   0.499998000    0   0   0
C        0.333335000   0.066668000   0.499998000    0   0   0
C        0.266695305   0.133262872   0.501963787
C        0.334120046   0.266353317   0.509031322
C        0.266353317   0.334120046   0.509031322
C        0.329845234   0.465391196   0.513225275
C        0.265838643   0.532954135   0.505102286
C        0.333112665   0.666891335   0.504689303
C        0.266855865   0.733147135   0.501522290
C        0.333613103   0.866842406   0.500392909
C        0.266667000   0.933337000   0.499998000    0   0   0
C        0.533336000   0.066668000   0.499998000    0   0   0
C        0.466441629   0.132864303   0.500661583
C        0.532955135   0.265839643   0.505102286
C        0.465390196   0.329844234   0.513225275
C        0.535431439   0.464572561   0.532793978
C        0.464572561   0.535431439   0.532793978
C        0.534613804   0.670159766   0.513225275
C        0.467048865   0.734164357   0.505102286
C        0.533562371   0.867139697   0.500661583
C        0.466668000   0.933337000   0.499998000    0   0   0
C        0.733337000   0.066668000   0.499998000    0   0   0
C        0.666390897   0.133161594   0.500392909
C        0.733148135   0.266856865   0.501522290
C        0.666891335   0.333112665   0.504689303
C        0.734165357   0.467049865   0.505102286
C        0.670158766   0.534612804   0.513225275
C        0.733650683   0.665883954   0.509031322
C        0.665883954   0.733650683   0.509031322
C        0.733308695   0.866741128   0.501963787
C        0.666669000   0.933337000   0.499998000    0   0   0
C        0.933337000   0.066668000   0.499998000    0   0   0
C        0.866670000   0.133334000   0.499998000    0   0   0
C        0.933336000   0.266667000   0.499998000    0   0   0
C        0.866842406   0.333613103   0.500392909
C        0.933336000   0.466668000   0.499998000    0   0   0
C        0.867139697   0.533561371   0.500661583
C        0.933336000   0.666669000   0.499998000    0   0   0
C        0.866741128   0.733308695   0.501963787
C        0.933336000   0.866670000   0.499998000    0   0   0
C        0.866669000   0.933337000   0.499998000    0   0   0
O        0.500000000   0.500000000   0.622650018
End final coordinates



     Writing output data file espresso.save

     init_run     :      4.20s CPU      5.09s WALL (       1 calls)
     electrons    :    920.45s CPU   1089.27s WALL (      28 calls)
     update_pot   :    100.11s CPU    110.22s WALL (      27 calls)
     forces       :     90.88s CPU     98.01s WALL (      28 calls)

     Called by init_run:
     wfcinit      :      1.12s CPU      1.32s WALL (       1 calls)
     potinit      :      1.34s CPU      1.60s WALL (       1 calls)

     Called by electrons:
     c_bands      :    554.41s CPU    609.98s WALL (     235 calls)
     sum_band     :    200.59s CPU    238.78s WALL (     235 calls)
     v_of_rho     :     84.44s CPU    142.20s WALL (     260 calls)
     newd         :     71.45s CPU     89.18s WALL (     260 calls)
     mix_rho      :     14.42s CPU     17.64s WALL (     235 calls)

     Called by c_bands:
     init_us_2    :      3.27s CPU      3.63s WALL (     471 calls)
     regterg      :    546.73s CPU    601.51s WALL (     235 calls)

     Called by sum_band:
     sum_band:bec :      0.36s CPU      0.54s WALL (     235 calls)
     addusdens    :     80.23s CPU    100.63s WALL (     235 calls)

     Called by *egterg:
     h_psi        :    356.62s CPU    399.11s WALL (    1054 calls)
     s_psi        :     41.91s CPU     42.85s WALL (    1054 calls)
     g_psi        :      0.55s CPU      0.61s WALL (     818 calls)
     rdiaghg      :     45.48s CPU     46.20s WALL (    1023 calls)

     Called by h_psi:
     h_psi:pot    :    354.22s CPU    396.79s WALL (    1054 calls)
     h_psi:calbec :     47.00s CPU     48.68s WALL (    1054 calls)
     vloc_psi     :    263.67s CPU    303.16s WALL (    1054 calls)
     add_vuspsi   :     43.55s CPU     44.94s WALL (    1054 calls)

     General routines
     calbec       :     79.45s CPU     82.68s WALL (    1401 calls)
     fft          :     89.20s CPU    150.63s WALL (    4143 calls)
     ffts         :      2.61s CPU      3.56s WALL (     495 calls)
     fftw         :    228.48s CPU    269.77s WALL (   90186 calls)
     interpolate  :     14.09s CPU     18.46s WALL (     495 calls)

     Parallel routines
     fft_scatter  :    143.09s CPU    224.75s WALL (   94824 calls)

     PWSCF        : 18m49.31s CPU    22m 0.21s WALL


   This run was terminated on:  22: 3:39  25Jan2022            

=------------------------------------------------------------------------------=
   JOB DONE.
=------------------------------------------------------------------------------=
