 INFO
nunit      1    1    1
unit   cell
celltype   primcell
shape   parapipedal
 END_INFO
 DIM-GROUP
           3           9
 PRIMVEC
   12.3048999510    0.0000000000    0.0000000000
   -6.1524499750   10.6563509800    0.0000000000
    0.0000000000    0.0000000000   13.9999983580
 CONVVEC
   12.3048999510    0.0000000000    0.0000000000
   -6.1524499750   10.6563509800    0.0000000000
    0.0000000000    0.0000000000   13.9999983580
 PRIMCOORD
          54           1
  6      1.2305023000     0.7104376070     6.9999711790     0.0825045900    -0.0044298900     0.1117131200
  6      0.0000123050     1.4208539020     6.9999711790    -0.0417781200     0.0787385400     0.1121973100
  6     -0.0321022530     2.8841935450     7.0788516640     0.0000253300     0.0001641800    -0.0000980500
  6     -1.2304838430     3.5521347540     6.9999711790    -0.0357735000     0.0444297400    -0.0376166600
  6     -1.2436030130     4.9835413310     7.0096884380    -0.0000800600    -0.0000925600    -0.0000901200
  6     -2.4609799900     5.6834156060     6.9999711790    -0.0212916000     0.0100339900    -0.0131448900
  6     -2.4594699080     7.1079627220     6.9921417640     0.0000398300     0.0001608100     0.0000465500
  6     -3.6914761380     7.8146964590     6.9999711790    -0.0057390500     0.0122114600    -0.0049543200
  6     -3.6914822900     9.2355397040     6.9999711790     0.0157020100    -0.0104292500    -0.0027739700
  6     -4.9219784380     9.9459666550     6.9999711790    -0.0378892100    -0.0926523500    -0.0599966000
  6      3.6914822900     0.7104376070     6.9999711790     0.0516289400    -0.0010451000    -0.0282793700
  6      2.5082693260     1.4136489620     7.0890334710     0.0000085000     0.0004294400    -0.0002242200
  6      2.6787779440     2.6777091080     7.6559461000    -0.0000107500     0.0004134200    -0.0002097300
  6      0.9596007110     3.6857122840     7.6575287160    -0.0001662300    -0.0001620300     0.0001408800
  6      1.1240579390     5.0416868470     7.4369357680     0.0000612600     0.0002945800     0.0001829000
  6     -0.0341169290     5.7232719040     7.0709702530     0.0000357000    -0.0000378700     0.0003423900
  6     -0.0092617080     7.1378549060     7.0180057390    -0.0001636400     0.0000050900     0.0003112600
  6     -1.2443429750     7.8302148120     6.9883687370    -0.0000484900    -0.0000934800    -0.0003161300
  6     -1.2344735400     9.2458099220     6.9956957480    -0.0000361100     0.0002489100     0.0001126900
  6     -2.4609984480     9.9459666550     6.9999711790    -0.0090035700    -0.0131132200    -0.0166757800
  6      6.1524745850     0.7104376070     6.9999711790     0.0318816900    -0.0095829300     0.0070163900
  6      4.9234694960     1.4236956090     7.0318034100    -0.0000201800    -0.0003962200     0.0002068600
  6      4.9407231750     2.8216764530     7.1562635350     0.0004966000    -0.0003909000    -0.0004411900
  6      3.7779895270     3.4990312800     7.4584886680     0.0001594000     0.0003167200    -0.0004647600
  6      3.7464583190     4.9595356300     7.6981432290    -0.0000228700    -0.0000306200     0.0004854900
  6      2.4038120710     5.7349919290     7.6745594620     0.0001536100     0.0001210500     0.0006145400
  6      2.4549223250     7.1437058280     7.2611999910    -0.0001334200     0.0002688300     0.0000604400
  6      1.2198361480     7.8302681470     7.0762182080    -0.0001234600    -0.0001363000     0.0000210600
  6      1.2303443790     9.2460882130     7.0108066880    -0.0000293600     0.0000757200     0.0000122100
  6     -0.0000061520     9.9459666550     6.9999711790    -0.0053271500     0.0094480100    -0.0114348200
  6      8.6134668800     0.7104376070     6.9999711790    -0.0026022600    -0.0170332000    -0.0030440100
  6      7.3836505910     1.3857014560     7.0466350360     0.0001309100    -0.0001489600     0.0003328500
  6      7.4334035470     2.8195898220     7.3161479120     0.0006243000    -0.0000596100    -0.0000280800
  6      6.1698510360     3.5669220180     7.3796030730     0.0004698200    -0.0004755000     0.0000455900
  6      6.1599197630     5.0146614240     7.1706981350     0.0000269400     0.0000820200    -0.0002966300
  6      4.9518722020     5.7074162560     7.2980732140     0.0000020700    -0.0003305100     0.0002391200
  6      4.9300229080     7.1048210700     7.1903330910    -0.0003100100    -0.0000964800     0.0005308800
  6      3.6709096110     7.8221125010     7.1798754280    -0.0000713600     0.0002663200     0.0006608200
  6      3.6909367650     9.2404548820     7.0356912790    -0.0000164900     0.0000296200    -0.0006773700
  6      2.4609861430     9.9459666550     6.9999711790     0.0031226600     0.0022305100     0.0009012500
  6     11.0744468710     0.7104376070     6.9999711790    -0.0895080700    -0.0491413400    -0.0600860700
  6      9.8439568750     1.4208539020     6.9999711790     0.0157915300    -0.0143068200     0.0017918300
  6      9.8439507230     2.8416971470     6.9999711790     0.0017991200     0.0134975800    -0.0144570200
  6      8.6544303230     3.5683008860     7.0533273850     0.0003043800     0.0000515000    -0.0001514100
  6      8.6134545760     4.9729779990     6.9999711790     0.0230154400    -0.0081529000     0.0091459700
  6      7.3733522020     5.6932234130     7.0321448420     0.0000604500     0.0001123500     0.0002116600
  6      7.3829584280     7.1042588520     6.9999711790    -0.0035999600     0.0081702900     0.0072119600
  6      6.1511330870     7.8129154950     7.0467582360    -0.0002529500    -0.0001744400    -0.0004241500
  6      6.1524622800     9.2355397040     6.9999711790     0.0634552600     0.0036277200     0.0006006100
  6      4.9219661330     9.9459666550     6.9999711790    -0.0370672800     0.0375515000    -0.0006063100
  8      3.1291907470     5.4621465060     8.9076579960     0.0000309100     0.0000736800     0.0009285700
  8      0.5621334010     0.9859210210     8.3680918990    -0.0002356500    -0.0001440200     0.0000110500
  8      1.7947997510     3.1392566410     8.5916396310    -0.0001879600    -0.0003592000     0.0000591000
  8      6.8355154100     3.1640980770     8.6314343040    -0.0000424900    -0.0000378800     0.0003563000
 CONVCOORD
          54           1
  6      1.2305023000     0.7104376070     6.9999711790
  6      0.0000123050     1.4208539020     6.9999711790
  6     -0.0321022530     2.8841935450     7.0788516640
  6     -1.2304838430     3.5521347540     6.9999711790
  6     -1.2436030130     4.9835413310     7.0096884380
  6     -2.4609799900     5.6834156060     6.9999711790
  6     -2.4594699080     7.1079627220     6.9921417640
  6     -3.6914761380     7.8146964590     6.9999711790
  6     -3.6914822900     9.2355397040     6.9999711790
  6     -4.9219784380     9.9459666550     6.9999711790
  6      3.6914822900     0.7104376070     6.9999711790
  6      2.5082693260     1.4136489620     7.0890334710
  6      2.6787779440     2.6777091080     7.6559461000
  6      0.9596007110     3.6857122840     7.6575287160
  6      1.1240579390     5.0416868470     7.4369357680
  6     -0.0341169290     5.7232719040     7.0709702530
  6     -0.0092617080     7.1378549060     7.0180057390
  6     -1.2443429750     7.8302148120     6.9883687370
  6     -1.2344735400     9.2458099220     6.9956957480
  6     -2.4609984480     9.9459666550     6.9999711790
  6      6.1524745850     0.7104376070     6.9999711790
  6      4.9234694960     1.4236956090     7.0318034100
  6      4.9407231750     2.8216764530     7.1562635350
  6      3.7779895270     3.4990312800     7.4584886680
  6      3.7464583190     4.9595356300     7.6981432290
  6      2.4038120710     5.7349919290     7.6745594620
  6      2.4549223250     7.1437058280     7.2611999910
  6      1.2198361480     7.8302681470     7.0762182080
  6      1.2303443790     9.2460882130     7.0108066880
  6     -0.0000061520     9.9459666550     6.9999711790
  6      8.6134668800     0.7104376070     6.9999711790
  6      7.3836505910     1.3857014560     7.0466350360
  6      7.4334035470     2.8195898220     7.3161479120
  6      6.1698510360     3.5669220180     7.3796030730
  6      6.1599197630     5.0146614240     7.1706981350
  6      4.9518722020     5.7074162560     7.2980732140
  6      4.9300229080     7.1048210700     7.1903330910
  6      3.6709096110     7.8221125010     7.1798754280
  6      3.6909367650     9.2404548820     7.0356912790
  6      2.4609861430     9.9459666550     6.9999711790
  6     11.0744468710     0.7104376070     6.9999711790
  6      9.8439568750     1.4208539020     6.9999711790
  6      9.8439507230     2.8416971470     6.9999711790
  6      8.6544303230     3.5683008860     7.0533273850
  6      8.6134545760     4.9729779990     6.9999711790
  6      7.3733522020     5.6932234130     7.0321448420
  6      7.3829584280     7.1042588520     6.9999711790
  6      6.1511330870     7.8129154950     7.0467582360
  6      6.1524622800     9.2355397040     6.9999711790
  6      4.9219661330     9.9459666550     6.9999711790
  8      3.1291907470     5.4621465060     8.9076579960
  8      0.5621334010     0.9859210210     8.3680918990
  8      1.7947997510     3.1392566410     8.5916396310
  8      6.8355154100     3.1640980770     8.6314343040
 RECIP-PRIMVEC
    0.0812684381    0.0469203765   -0.0000000000

    0.0000000000    0.0938407530    0.0000000000

    0.0000000000   -0.0000000000    0.0714285798

 RECIP-CONVVEC
    0.0812684381    0.0469203765   -0.0000000000

    0.0000000000    0.0938407530    0.0000000000

    0.0000000000   -0.0000000000    0.0714285798

 WIGNER-SEITZ-PRIMCELL
           4
  0.6152450E+01 -0.3552115E+01 -0.6999999E+01   0.1000000E+01 -0.0000000E+00 -0.0000000E+00
  0.6152450E+01  0.3552115E+01 -0.6999999E+01   0.1000000E+01 -0.0000000E+00 -0.0000000E+00
  0.6152450E+01  0.3552115E+01  0.6999999E+01   0.1000000E+01 -0.0000000E+00 -0.0000000E+00
  0.6152450E+01 -0.3552115E+01  0.6999999E+01   0.1000000E+01 -0.0000000E+00 -0.0000000E+00
           4
  0.6152450E+01 -0.3552115E+01  0.6999999E+01   0.5000002E+00 -0.8660253E+00 -0.1435454E-15
 -0.4999987E-09 -0.7104236E+01  0.6999999E+01   0.5000002E+00 -0.8660253E+00 -0.1435454E-15
 -0.5000007E-09 -0.7104236E+01 -0.6999999E+01   0.5000002E+00 -0.8660253E+00 -0.1435454E-15
  0.6152450E+01 -0.3552115E+01 -0.6999999E+01   0.5000002E+00 -0.8660253E+00 -0.1435454E-15
           4
  0.6152450E+01  0.3552115E+01 -0.6999999E+01   0.5000002E+00  0.8660253E+00 -0.7210489E-16
  0.4999987E-09  0.7104236E+01 -0.6999999E+01   0.5000002E+00  0.8660253E+00 -0.7210489E-16
  0.5000007E-09  0.7104236E+01  0.6999999E+01   0.5000002E+00  0.8660253E+00 -0.7210489E-16
  0.6152450E+01  0.3552115E+01  0.6999999E+01   0.5000002E+00  0.8660253E+00 -0.7210489E-16
           6
 -0.6152450E+01 -0.3552115E+01 -0.6999999E+01  -0.1625643E-15  0.0000000E+00 -0.1000000E+01
 -0.6152450E+01  0.3552115E+01 -0.6999999E+01  -0.1625643E-15  0.0000000E+00 -0.1000000E+01
  0.4999987E-09  0.7104236E+01 -0.6999999E+01  -0.1625643E-15  0.0000000E+00 -0.1000000E+01
  0.6152450E+01  0.3552115E+01 -0.6999999E+01  -0.1625643E-15  0.0000000E+00 -0.1000000E+01
  0.6152450E+01 -0.3552115E+01 -0.6999999E+01  -0.1625643E-15  0.0000000E+00 -0.1000000E+01
 -0.5000007E-09 -0.7104236E+01 -0.6999999E+01  -0.1625643E-15  0.0000000E+00 -0.1000000E+01
           6
 -0.5000007E-09 -0.7104236E+01  0.6999999E+01  -0.3251285E-15 -0.0000000E+00  0.1000000E+01
  0.6152450E+01 -0.3552115E+01  0.6999999E+01  -0.3251285E-15 -0.0000000E+00  0.1000000E+01
  0.6152450E+01  0.3552115E+01  0.6999999E+01  -0.3251285E-15 -0.0000000E+00  0.1000000E+01
  0.4999987E-09  0.7104236E+01  0.6999999E+01  -0.3251285E-15 -0.0000000E+00  0.1000000E+01
 -0.6152450E+01  0.3552115E+01  0.6999999E+01  -0.3251285E-15 -0.0000000E+00  0.1000000E+01
 -0.6152450E+01 -0.3552115E+01  0.6999999E+01  -0.3251285E-15 -0.0000000E+00  0.1000000E+01
           4
 -0.6152450E+01 -0.3552115E+01  0.6999999E+01  -0.5000002E+00 -0.8660253E+00  0.0000000E+00
 -0.6152450E+01 -0.3552115E+01 -0.6999999E+01  -0.5000002E+00 -0.8660253E+00  0.0000000E+00
 -0.5000007E-09 -0.7104236E+01 -0.6999999E+01  -0.5000002E+00 -0.8660253E+00  0.0000000E+00
 -0.4999997E-09 -0.7104236E+01  0.6999999E+01  -0.5000002E+00 -0.8660253E+00  0.0000000E+00
           4
  0.4999997E-09  0.7104236E+01  0.6999999E+01  -0.5000002E+00  0.8660253E+00  0.1428811E-15
  0.4999987E-09  0.7104236E+01 -0.6999999E+01  -0.5000002E+00  0.8660253E+00  0.1428811E-15
 -0.6152450E+01  0.3552115E+01 -0.6999999E+01  -0.5000002E+00  0.8660253E+00  0.1428811E-15
 -0.6152450E+01  0.3552115E+01  0.6999999E+01  -0.5000002E+00  0.8660253E+00  0.1428811E-15
           4
 -0.6152450E+01 -0.3552115E+01  0.6999999E+01  -0.1000000E+01  0.0000000E+00  0.6344132E-16
 -0.6152450E+01  0.3552115E+01  0.6999999E+01  -0.1000000E+01  0.0000000E+00  0.6344132E-16
 -0.6152450E+01  0.3552115E+01 -0.6999999E+01  -0.1000000E+01  0.0000000E+00  0.6344132E-16
 -0.6152450E+01 -0.3552115E+01 -0.6999999E+01  -0.1000000E+01  0.0000000E+00  0.6344132E-16
 WIGNER-SEITZ-PRIMCELL_END
 WIGNER-SEITZ-CONVCELL
           4
  0.6152450E+01 -0.3552115E+01 -0.6999999E+01   0.1000000E+01 -0.0000000E+00 -0.0000000E+00
  0.6152450E+01  0.3552115E+01 -0.6999999E+01   0.1000000E+01 -0.0000000E+00 -0.0000000E+00
  0.6152450E+01  0.3552115E+01  0.6999999E+01   0.1000000E+01 -0.0000000E+00 -0.0000000E+00
  0.6152450E+01 -0.3552115E+01  0.6999999E+01   0.1000000E+01 -0.0000000E+00 -0.0000000E+00
           4
  0.6152450E+01 -0.3552115E+01  0.6999999E+01   0.5000002E+00 -0.8660253E+00 -0.1435454E-15
 -0.4999987E-09 -0.7104236E+01  0.6999999E+01   0.5000002E+00 -0.8660253E+00 -0.1435454E-15
 -0.5000007E-09 -0.7104236E+01 -0.6999999E+01   0.5000002E+00 -0.8660253E+00 -0.1435454E-15
  0.6152450E+01 -0.3552115E+01 -0.6999999E+01   0.5000002E+00 -0.8660253E+00 -0.1435454E-15
           4
  0.6152450E+01  0.3552115E+01 -0.6999999E+01   0.5000002E+00  0.8660253E+00 -0.7210489E-16
  0.4999987E-09  0.7104236E+01 -0.6999999E+01   0.5000002E+00  0.8660253E+00 -0.7210489E-16
  0.5000007E-09  0.7104236E+01  0.6999999E+01   0.5000002E+00  0.8660253E+00 -0.7210489E-16
  0.6152450E+01  0.3552115E+01  0.6999999E+01   0.5000002E+00  0.8660253E+00 -0.7210489E-16
           6
 -0.6152450E+01 -0.3552115E+01 -0.6999999E+01  -0.1625643E-15  0.0000000E+00 -0.1000000E+01
 -0.6152450E+01  0.3552115E+01 -0.6999999E+01  -0.1625643E-15  0.0000000E+00 -0.1000000E+01
  0.4999987E-09  0.7104236E+01 -0.6999999E+01  -0.1625643E-15  0.0000000E+00 -0.1000000E+01
  0.6152450E+01  0.3552115E+01 -0.6999999E+01  -0.1625643E-15  0.0000000E+00 -0.1000000E+01
  0.6152450E+01 -0.3552115E+01 -0.6999999E+01  -0.1625643E-15  0.0000000E+00 -0.1000000E+01
 -0.5000007E-09 -0.7104236E+01 -0.6999999E+01  -0.1625643E-15  0.0000000E+00 -0.1000000E+01
           6
 -0.5000007E-09 -0.7104236E+01  0.6999999E+01  -0.3251285E-15 -0.0000000E+00  0.1000000E+01
  0.6152450E+01 -0.3552115E+01  0.6999999E+01  -0.3251285E-15 -0.0000000E+00  0.1000000E+01
  0.6152450E+01  0.3552115E+01  0.6999999E+01  -0.3251285E-15 -0.0000000E+00  0.1000000E+01
  0.4999987E-09  0.7104236E+01  0.6999999E+01  -0.3251285E-15 -0.0000000E+00  0.1000000E+01
 -0.6152450E+01  0.3552115E+01  0.6999999E+01  -0.3251285E-15 -0.0000000E+00  0.1000000E+01
 -0.6152450E+01 -0.3552115E+01  0.6999999E+01  -0.3251285E-15 -0.0000000E+00  0.1000000E+01
           4
 -0.6152450E+01 -0.3552115E+01  0.6999999E+01  -0.5000002E+00 -0.8660253E+00  0.0000000E+00
 -0.6152450E+01 -0.3552115E+01 -0.6999999E+01  -0.5000002E+00 -0.8660253E+00  0.0000000E+00
 -0.5000007E-09 -0.7104236E+01 -0.6999999E+01  -0.5000002E+00 -0.8660253E+00  0.0000000E+00
 -0.4999997E-09 -0.7104236E+01  0.6999999E+01  -0.5000002E+00 -0.8660253E+00  0.0000000E+00
           4
  0.4999997E-09  0.7104236E+01  0.6999999E+01  -0.5000002E+00  0.8660253E+00  0.1428811E-15
  0.4999987E-09  0.7104236E+01 -0.6999999E+01  -0.5000002E+00  0.8660253E+00  0.1428811E-15
 -0.6152450E+01  0.3552115E+01 -0.6999999E+01  -0.5000002E+00  0.8660253E+00  0.1428811E-15
 -0.6152450E+01  0.3552115E+01  0.6999999E+01  -0.5000002E+00  0.8660253E+00  0.1428811E-15
           4
 -0.6152450E+01 -0.3552115E+01  0.6999999E+01  -0.1000000E+01  0.0000000E+00  0.6344132E-16
 -0.6152450E+01  0.3552115E+01  0.6999999E+01  -0.1000000E+01  0.0000000E+00  0.6344132E-16
 -0.6152450E+01  0.3552115E+01 -0.6999999E+01  -0.1000000E+01  0.0000000E+00  0.6344132E-16
 -0.6152450E+01 -0.3552115E+01 -0.6999999E+01  -0.1000000E+01  0.0000000E+00  0.6344132E-16
 WIGNER-SEITZ-CONVCELL_END
 BRILLOUIN-ZONE-PRIMCELL
           4
 -0.5417897E-01  0.3813147E-11 -0.3571429E-01  -0.8660253E+00 -0.5000002E+00 -0.3418542E-26
 -0.2708947E-01 -0.4692038E-01 -0.3571429E-01  -0.8660253E+00 -0.5000002E+00 -0.3418542E-26
 -0.2708947E-01 -0.4692038E-01  0.3571429E-01  -0.8660253E+00 -0.5000002E+00 -0.3418542E-26
 -0.5417897E-01  0.3813141E-11  0.3571429E-01  -0.8660253E+00 -0.5000002E+00 -0.3418542E-26
           4
 -0.5417897E-01  0.3813147E-11  0.3571429E-01  -0.8660253E+00  0.5000002E+00  0.5603216E-16
 -0.2708947E-01  0.4692038E-01  0.3571429E-01  -0.8660253E+00  0.5000002E+00  0.5603216E-16
 -0.2708947E-01  0.4692038E-01 -0.3571429E-01  -0.8660253E+00  0.5000002E+00  0.5603216E-16
 -0.5417897E-01  0.3813147E-11 -0.3571429E-01  -0.8660253E+00  0.5000002E+00  0.5603216E-16
           4
 -0.2708947E-01 -0.4692038E-01 -0.3571429E-01  -0.3732495E-31 -0.1000000E+01  0.2793475E-16
  0.2708947E-01 -0.4692038E-01 -0.3571429E-01  -0.3732495E-31 -0.1000000E+01  0.2793475E-16
  0.2708947E-01 -0.4692038E-01  0.3571429E-01  -0.3732495E-31 -0.1000000E+01  0.2793475E-16
 -0.2708947E-01 -0.4692038E-01  0.3571429E-01  -0.3732495E-31 -0.1000000E+01  0.2793475E-16
           6
 -0.5417897E-01  0.3813147E-11 -0.3571429E-01   0.0000000E+00 -0.3411994E-15 -0.1000000E+01
 -0.2708947E-01  0.4692038E-01 -0.3571429E-01   0.0000000E+00 -0.3411994E-15 -0.1000000E+01
  0.2708947E-01  0.4692038E-01 -0.3571429E-01   0.0000000E+00 -0.3411994E-15 -0.1000000E+01
  0.5417897E-01 -0.3813153E-11 -0.3571429E-01   0.0000000E+00 -0.3411994E-15 -0.1000000E+01
  0.2708947E-01 -0.4692038E-01 -0.3571429E-01   0.0000000E+00 -0.3411994E-15 -0.1000000E+01
 -0.2708947E-01 -0.4692038E-01 -0.3571429E-01   0.0000000E+00 -0.3411994E-15 -0.1000000E+01
           6
 -0.2708947E-01 -0.4692038E-01  0.3571429E-01  -0.0000000E+00 -0.3411994E-15  0.1000000E+01
  0.2708947E-01 -0.4692038E-01  0.3571429E-01  -0.0000000E+00 -0.3411994E-15  0.1000000E+01
  0.5417897E-01 -0.3813144E-11  0.3571429E-01  -0.0000000E+00 -0.3411994E-15  0.1000000E+01
  0.2708947E-01  0.4692038E-01  0.3571429E-01  -0.0000000E+00 -0.3411994E-15  0.1000000E+01
 -0.2708947E-01  0.4692038E-01  0.3571429E-01  -0.0000000E+00 -0.3411994E-15  0.1000000E+01
 -0.5417897E-01  0.3813147E-11  0.3571429E-01  -0.0000000E+00 -0.3411994E-15  0.1000000E+01
           4
 -0.2708947E-01  0.4692038E-01  0.3571429E-01  -0.1280737E-15  0.1000000E+01  0.1120644E-15
  0.2708947E-01  0.4692038E-01  0.3571429E-01  -0.1280737E-15  0.1000000E+01  0.1120644E-15
  0.2708947E-01  0.4692038E-01 -0.3571429E-01  -0.1280737E-15  0.1000000E+01  0.1120644E-15
 -0.2708947E-01  0.4692038E-01 -0.3571429E-01  -0.1280737E-15  0.1000000E+01  0.1120644E-15
           4
  0.2708947E-01 -0.4692038E-01 -0.3571429E-01   0.8660253E+00 -0.5000002E+00 -0.4353846E-16
  0.5417897E-01 -0.3813147E-11 -0.3571429E-01   0.8660253E+00 -0.5000002E+00 -0.4353846E-16
  0.5417897E-01 -0.3813153E-11  0.3571429E-01   0.8660253E+00 -0.5000002E+00 -0.4353846E-16
  0.2708947E-01 -0.4692038E-01  0.3571429E-01   0.8660253E+00 -0.5000002E+00 -0.4353846E-16
           4
  0.2708947E-01  0.4692038E-01  0.3571429E-01   0.8660253E+00  0.5000002E+00 -0.1712065E-15
  0.5417897E-01 -0.3813134E-11  0.3571429E-01   0.8660253E+00  0.5000002E+00 -0.1712065E-15
  0.5417897E-01 -0.3813147E-11 -0.3571429E-01   0.8660253E+00  0.5000002E+00 -0.1712065E-15
  0.2708947E-01  0.4692038E-01 -0.3571429E-01   0.8660253E+00  0.5000002E+00 -0.1712065E-15
 BRILLOUIN-ZONE-PRIMCELL_END
 BRILLOUIN-ZONE-CONVCELL
           4
 -0.5417897E-01  0.3813147E-11 -0.3571429E-01  -0.8660253E+00 -0.5000002E+00 -0.3418542E-26
 -0.2708947E-01 -0.4692038E-01 -0.3571429E-01  -0.8660253E+00 -0.5000002E+00 -0.3418542E-26
 -0.2708947E-01 -0.4692038E-01  0.3571429E-01  -0.8660253E+00 -0.5000002E+00 -0.3418542E-26
 -0.5417897E-01  0.3813141E-11  0.3571429E-01  -0.8660253E+00 -0.5000002E+00 -0.3418542E-26
           4
 -0.5417897E-01  0.3813147E-11  0.3571429E-01  -0.8660253E+00  0.5000002E+00  0.5603216E-16
 -0.2708947E-01  0.4692038E-01  0.3571429E-01  -0.8660253E+00  0.5000002E+00  0.5603216E-16
 -0.2708947E-01  0.4692038E-01 -0.3571429E-01  -0.8660253E+00  0.5000002E+00  0.5603216E-16
 -0.5417897E-01  0.3813147E-11 -0.3571429E-01  -0.8660253E+00  0.5000002E+00  0.5603216E-16
           4
 -0.2708947E-01 -0.4692038E-01 -0.3571429E-01  -0.3732495E-31 -0.1000000E+01  0.2793475E-16
  0.2708947E-01 -0.4692038E-01 -0.3571429E-01  -0.3732495E-31 -0.1000000E+01  0.2793475E-16
  0.2708947E-01 -0.4692038E-01  0.3571429E-01  -0.3732495E-31 -0.1000000E+01  0.2793475E-16
 -0.2708947E-01 -0.4692038E-01  0.3571429E-01  -0.3732495E-31 -0.1000000E+01  0.2793475E-16
           6
 -0.5417897E-01  0.3813147E-11 -0.3571429E-01   0.0000000E+00 -0.3411994E-15 -0.1000000E+01
 -0.2708947E-01  0.4692038E-01 -0.3571429E-01   0.0000000E+00 -0.3411994E-15 -0.1000000E+01
  0.2708947E-01  0.4692038E-01 -0.3571429E-01   0.0000000E+00 -0.3411994E-15 -0.1000000E+01
  0.5417897E-01 -0.3813153E-11 -0.3571429E-01   0.0000000E+00 -0.3411994E-15 -0.1000000E+01
  0.2708947E-01 -0.4692038E-01 -0.3571429E-01   0.0000000E+00 -0.3411994E-15 -0.1000000E+01
 -0.2708947E-01 -0.4692038E-01 -0.3571429E-01   0.0000000E+00 -0.3411994E-15 -0.1000000E+01
           6
 -0.2708947E-01 -0.4692038E-01  0.3571429E-01  -0.0000000E+00 -0.3411994E-15  0.1000000E+01
  0.2708947E-01 -0.4692038E-01  0.3571429E-01  -0.0000000E+00 -0.3411994E-15  0.1000000E+01
  0.5417897E-01 -0.3813144E-11  0.3571429E-01  -0.0000000E+00 -0.3411994E-15  0.1000000E+01
  0.2708947E-01  0.4692038E-01  0.3571429E-01  -0.0000000E+00 -0.3411994E-15  0.1000000E+01
 -0.2708947E-01  0.4692038E-01  0.3571429E-01  -0.0000000E+00 -0.3411994E-15  0.1000000E+01
 -0.5417897E-01  0.3813147E-11  0.3571429E-01  -0.0000000E+00 -0.3411994E-15  0.1000000E+01
           4
 -0.2708947E-01  0.4692038E-01  0.3571429E-01  -0.1280737E-15  0.1000000E+01  0.1120644E-15
  0.2708947E-01  0.4692038E-01  0.3571429E-01  -0.1280737E-15  0.1000000E+01  0.1120644E-15
  0.2708947E-01  0.4692038E-01 -0.3571429E-01  -0.1280737E-15  0.1000000E+01  0.1120644E-15
 -0.2708947E-01  0.4692038E-01 -0.3571429E-01  -0.1280737E-15  0.1000000E+01  0.1120644E-15
           4
  0.2708947E-01 -0.4692038E-01 -0.3571429E-01   0.8660253E+00 -0.5000002E+00 -0.4353846E-16
  0.5417897E-01 -0.3813147E-11 -0.3571429E-01   0.8660253E+00 -0.5000002E+00 -0.4353846E-16
  0.5417897E-01 -0.3813153E-11  0.3571429E-01   0.8660253E+00 -0.5000002E+00 -0.4353846E-16
  0.2708947E-01 -0.4692038E-01  0.3571429E-01   0.8660253E+00 -0.5000002E+00 -0.4353846E-16
           4
  0.2708947E-01  0.4692038E-01  0.3571429E-01   0.8660253E+00  0.5000002E+00 -0.1712065E-15
  0.5417897E-01 -0.3813134E-11  0.3571429E-01   0.8660253E+00  0.5000002E+00 -0.1712065E-15
  0.5417897E-01 -0.3813147E-11 -0.3571429E-01   0.8660253E+00  0.5000002E+00 -0.1712065E-15
  0.2708947E-01  0.4692038E-01 -0.3571429E-01   0.8660253E+00  0.5000002E+00 -0.1712065E-15
 BRILLOUIN-ZONE-CONVCELL_END
 ATOMS
    6    1.2305023000    0.7104376070    6.9999711790    0.0825045900   -0.0044298900    0.1117131200
    6    0.0000123050    1.4208539020    6.9999711790   -0.0417781200    0.0787385400    0.1121973100
    6   -0.0321022530    2.8841935450    7.0788516640    0.0000253300    0.0001641800   -0.0000980500
    6   -1.2304838430    3.5521347540    6.9999711790   -0.0357735000    0.0444297400   -0.0376166600
    6   -1.2436030130    4.9835413310    7.0096884380   -0.0000800600   -0.0000925600   -0.0000901200
    6   -2.4609799900    5.6834156060    6.9999711790   -0.0212916000    0.0100339900   -0.0131448900
    6   -2.4594699080    7.1079627220    6.9921417640    0.0000398300    0.0001608100    0.0000465500
    6   -3.6914761380    7.8146964590    6.9999711790   -0.0057390500    0.0122114600   -0.0049543200
    6   -3.6914822900    9.2355397040    6.9999711790    0.0157020100   -0.0104292500   -0.0027739700
    6   -4.9219784380    9.9459666550    6.9999711790   -0.0378892100   -0.0926523500   -0.0599966000
    6    3.6914822900    0.7104376070    6.9999711790    0.0516289400   -0.0010451000   -0.0282793700
    6    2.5082693260    1.4136489620    7.0890334710    0.0000085000    0.0004294400   -0.0002242200
    6    2.6787779440    2.6777091080    7.6559461000   -0.0000107500    0.0004134200   -0.0002097300
    6    0.9596007110    3.6857122840    7.6575287160   -0.0001662300   -0.0001620300    0.0001408800
    6    1.1240579390    5.0416868470    7.4369357680    0.0000612600    0.0002945800    0.0001829000
    6   -0.0341169290    5.7232719040    7.0709702530    0.0000357000   -0.0000378700    0.0003423900
    6   -0.0092617080    7.1378549060    7.0180057390   -0.0001636400    0.0000050900    0.0003112600
    6   -1.2443429750    7.8302148120    6.9883687370   -0.0000484900   -0.0000934800   -0.0003161300
    6   -1.2344735400    9.2458099220    6.9956957480   -0.0000361100    0.0002489100    0.0001126900
    6   -2.4609984480    9.9459666550    6.9999711790   -0.0090035700   -0.0131132200   -0.0166757800
    6    6.1524745850    0.7104376070    6.9999711790    0.0318816900   -0.0095829300    0.0070163900
    6    4.9234694960    1.4236956090    7.0318034100   -0.0000201800   -0.0003962200    0.0002068600
    6    4.9407231750    2.8216764530    7.1562635350    0.0004966000   -0.0003909000   -0.0004411900
    6    3.7779895270    3.4990312800    7.4584886680    0.0001594000    0.0003167200   -0.0004647600
    6    3.7464583190    4.9595356300    7.6981432290   -0.0000228700   -0.0000306200    0.0004854900
    6    2.4038120710    5.7349919290    7.6745594620    0.0001536100    0.0001210500    0.0006145400
    6    2.4549223250    7.1437058280    7.2611999910   -0.0001334200    0.0002688300    0.0000604400
    6    1.2198361480    7.8302681470    7.0762182080   -0.0001234600   -0.0001363000    0.0000210600
    6    1.2303443790    9.2460882130    7.0108066880   -0.0000293600    0.0000757200    0.0000122100
    6   -0.0000061520    9.9459666550    6.9999711790   -0.0053271500    0.0094480100   -0.0114348200
    6    8.6134668800    0.7104376070    6.9999711790   -0.0026022600   -0.0170332000   -0.0030440100
    6    7.3836505910    1.3857014560    7.0466350360    0.0001309100   -0.0001489600    0.0003328500
    6    7.4334035470    2.8195898220    7.3161479120    0.0006243000   -0.0000596100   -0.0000280800
    6    6.1698510360    3.5669220180    7.3796030730    0.0004698200   -0.0004755000    0.0000455900
    6    6.1599197630    5.0146614240    7.1706981350    0.0000269400    0.0000820200   -0.0002966300
    6    4.9518722020    5.7074162560    7.2980732140    0.0000020700   -0.0003305100    0.0002391200
    6    4.9300229080    7.1048210700    7.1903330910   -0.0003100100   -0.0000964800    0.0005308800
    6    3.6709096110    7.8221125010    7.1798754280   -0.0000713600    0.0002663200    0.0006608200
    6    3.6909367650    9.2404548820    7.0356912790   -0.0000164900    0.0000296200   -0.0006773700
    6    2.4609861430    9.9459666550    6.9999711790    0.0031226600    0.0022305100    0.0009012500
    6   11.0744468710    0.7104376070    6.9999711790   -0.0895080700   -0.0491413400   -0.0600860700
    6    9.8439568750    1.4208539020    6.9999711790    0.0157915300   -0.0143068200    0.0017918300
    6    9.8439507230    2.8416971470    6.9999711790    0.0017991200    0.0134975800   -0.0144570200
    6    8.6544303230    3.5683008860    7.0533273850    0.0003043800    0.0000515000   -0.0001514100
    6    8.6134545760    4.9729779990    6.9999711790    0.0230154400   -0.0081529000    0.0091459700
    6    7.3733522020    5.6932234130    7.0321448420    0.0000604500    0.0001123500    0.0002116600
    6    7.3829584280    7.1042588520    6.9999711790   -0.0035999600    0.0081702900    0.0072119600
    6    6.1511330870    7.8129154950    7.0467582360   -0.0002529500   -0.0001744400   -0.0004241500
    6    6.1524622800    9.2355397040    6.9999711790    0.0634552600    0.0036277200    0.0006006100
    6    4.9219661330    9.9459666550    6.9999711790   -0.0370672800    0.0375515000   -0.0006063100
    8    3.1291907470    5.4621465060    8.9076579960    0.0000309100    0.0000736800    0.0009285700
    8    0.5621334010    0.9859210210    8.3680918990   -0.0002356500   -0.0001440200    0.0000110500
    8    1.7947997510    3.1392566410    8.5916396310   -0.0001879600   -0.0003592000    0.0000591000
    8    6.8355154100    3.1640980770    8.6314343040   -0.0000424900   -0.0000378800    0.0003563000
 FRAMES
1      0.0000000000    0.0000000000    0.0000000000     12.3048999510    0.0000000000    0.0000000000
1      0.0000000000    0.0000000000    0.0000000000     -6.1524499750   10.6563509800    0.0000000000
1      0.0000000000    0.0000000000    0.0000000000      0.0000000000    0.0000000000   13.9999983580
1      0.0000000000    0.0000000000   13.9999983580     12.3048999510    0.0000000000   13.9999983580
1      0.0000000000    0.0000000000   13.9999983580     -6.1524499750   10.6563509800   13.9999983580
1     -6.1524499750   10.6563509800    0.0000000000      6.1524499760   10.6563509800    0.0000000000
1     -6.1524499750   10.6563509800    0.0000000000     -6.1524499750   10.6563509800   13.9999983580
1     -6.1524499750   10.6563509800   13.9999983580      6.1524499760   10.6563509800   13.9999983580
1     12.3048999510    0.0000000000    0.0000000000      6.1524499760   10.6563509800    0.0000000000