 INFO
nunit      1    1    1
unit   cell
celltype   primcell
shape   parapipedal
 END_INFO
 DIM-GROUP
           3           9
 PRIMVEC
   12.3048999510    0.0000000000    0.0000000000
   -6.1524499750   10.6563509800    0.0000000000
    0.0000000000    0.0000000000   13.9999983580
 CONVVEC
   12.3048999510    0.0000000000    0.0000000000
   -6.1524499750   10.6563509800    0.0000000000
    0.0000000000    0.0000000000   13.9999983580
 PRIMCOORD
          58           1
  6      1.2305023000     0.7104376070     6.9999711790    -0.0243961100     0.0113700700    -0.0029871400
  6      0.0000123050     1.4208539020     6.9999711790     0.0045165000    -0.0513767100     0.0241344100
  6      0.0017527350     2.8412666090     7.3905202580     0.0001415700     0.0000194400     0.0001850400
  6     -1.2304838430     3.5521347540     6.9999711790    -0.0470577000     0.0170737700     0.0104764500
  6     -1.2386262290     4.9586384510     6.9701013150    -0.0001604300     0.0000350600    -0.0003352000
  6     -2.4609799900     5.6834156060     6.9999711790    -0.0366347000    -0.0690370100     0.0017394900
  6     -2.4532110820     7.1050355720     7.4064056920    -0.0000256100     0.0000258000    -0.0000854900
  6     -3.6914761380     7.8146964590     6.9999711790    -0.0682043900     0.0052541000     0.0162353800
  6     -3.6914822900     9.2355397040     6.9999711790    -0.0106891200    -0.0223131000    -0.0107619800
  6     -4.9219784380     9.9459666550     6.9999711790    -0.0056956600    -0.0030167000    -0.0116712600
  6      3.6914822900     0.7104376070     6.9999711790     0.0014158900    -0.0164732800    -0.0044220300
  6      2.4657511230     1.4301860410     7.0143231380    -0.0000035400    -0.0002120200     0.0002787800
  6      2.4610600890     2.8448807850     7.0281091740    -0.0001895600    -0.0000010200    -0.0003355600
  6      1.2570594610     3.5673538560     7.0855960370    -0.0002910400     0.0001387800    -0.0004140900
  6      1.2137856500     4.9646819020     7.1071456470    -0.0000280000    -0.0001698000    -0.0002555200
  6      0.0066164490     5.6721477830     7.0619777460    -0.0003096800     0.0001476500     0.0000767800
  6      0.0054059550     7.1082125180     7.0696624850    -0.0003235900     0.0000833200     0.0000427300
  6     -1.1905023500     7.8263694360     7.0956325660     0.0001610800    -0.0000872400    -0.0001947100
  6     -1.2251645880     9.2353662290     7.0199376410    -0.0001081700     0.0000160500    -0.0002434900
  6     -2.4609984480     9.9459666550     6.9999711790     0.0145098600     0.0197711900     0.0089080800
  6      6.1524745850     0.7104376070     6.9999711790    -0.0013892800     0.0070964400    -0.0081412800
  6      4.9311247990     1.4198603350     6.9718385320     0.0000397000    -0.0002883900    -0.0003068800
  6      4.9279499320     2.8371325840     6.9327133530    -0.0002694000     0.0000079100    -0.0000194400
  6      3.7082171940     3.5595182520     6.9834733430     0.0001181700     0.0000365500    -0.0003007700
  6      3.7157586150     4.9518881210     7.0652212800    -0.0003661300    -0.0002857300    -0.0000458600
  6      2.4705460590     5.6855047950     7.4579572560    -0.0003959300     0.0001366900    -0.0003102000
  6      2.4700347790     7.1345386280     7.1039376310     0.0002588100     0.0002163700    -0.0003840000
  6      1.2532027240     7.8190072300     7.0360936810     0.0000302200    -0.0000251600    -0.0005586100
  6      1.2368325990     9.2375632700     6.9978605530    -0.0001091600     0.0001650500     0.0003060700
  6     -0.0000061520     9.9459666550     6.9999711790     0.0088837900     0.0088164300    -0.0023612500
  6      8.6134668800     0.7104376070     6.9999711790     0.0202988100     0.0134627300    -0.0014818300
  6      7.3838594730     1.4303115520     6.9895947170     0.0000494700    -0.0002540900     0.0009490100
  6      7.3901542900     2.8383732710     6.9718723560    -0.0000392800     0.0002421000     0.0006425700
  6      6.1494640320     3.5524123090     6.9581748980    -0.0000463600    -0.0001549600     0.0003062400
  6      6.1251215620     4.9481404850     7.0224291790    -0.0003557800    -0.0001753800     0.0006691500
  6      4.9275615280     5.6624816520     7.0228938670    -0.0004404300     0.0000979800     0.0004476900
  6      4.9295156690     7.1067393300     7.0414602580    -0.0001348300     0.0003037400     0.0000206200
  6      3.6973184740     7.8184488050     7.0448961660    -0.0001527800     0.0002784000     0.0002609300
  6      3.6942725000     9.2417516740     7.0012829790     0.0001105800     0.0001734200     0.0000840000
  6      2.4609861430     9.9459666550     6.9999711790     0.0082514800     0.0017314300    -0.0008053600
  6     11.0744468710     0.7104376070     6.9999711790     0.0260747000     0.0069009800    -0.0080303000
  6      9.8439568750     1.4208539020     6.9999711790    -0.0257554500    -0.0116018000     0.0084133300
  6      9.8439507230     2.8416971470     6.9999711790     0.0202648100     0.0200310100    -0.0229611600
  6      8.6184573290     3.5571326460     6.9536307090     0.0000639300    -0.0000987500     0.0006654800
  6      8.6134545760     4.9729779990     6.9999711790     0.0709440000     0.0030995000     0.0058845600
  6      7.3711273960     5.6727438780     7.3946129610    -0.0001827000    -0.0000190000    -0.0001500000
  6      7.3829584280     7.1042588520     6.9999711790     0.0405045200     0.0522937900     0.0125138400
  6      6.1521244680     7.8123825070     6.9850628750     0.0001578600     0.0000507300     0.0001059100
  6      6.1524622800     9.2355397040     6.9999711790     0.0044879600     0.0027840600    -0.0080562700
  6      4.9219661330     9.9459666550     6.9999711790    -0.0001062300     0.0022217200    -0.0070135000
  8      2.4872782380     5.7295873910     8.9561760400    -0.0000263600     0.0001916500    -0.0002811900
  1      2.1837029010     4.8466156500     9.2613377420    -0.0001928600     0.0003459600     0.0009223500
  8     -2.5674768200     7.1191349680     8.9206874580     0.0003554000     0.0001554700    -0.0000296700
  1     -1.7643786980     6.6752679420     9.2692224710     0.0005239000     0.0002538800    -0.0003868000
  8      7.3137399270     5.6528463610     8.8761571310     0.0003289900     0.0002682600    -0.0002185300
  1      8.1293079390     6.1330049230     9.1746753720     0.0002879900     0.0003714800    -0.0001232800
  8     -0.0554309900     2.8730804840     8.9214238720     0.0007480200     0.0003569600    -0.0002309200
  1      0.1636314520     1.9700825610     9.2305728020     0.0005522600    -0.0004358000    -0.0003653000
 CONVCOORD
          58           1
  6      1.2305023000     0.7104376070     6.9999711790
  6      0.0000123050     1.4208539020     6.9999711790
  6      0.0017527350     2.8412666090     7.3905202580
  6     -1.2304838430     3.5521347540     6.9999711790
  6     -1.2386262290     4.9586384510     6.9701013150
  6     -2.4609799900     5.6834156060     6.9999711790
  6     -2.4532110820     7.1050355720     7.4064056920
  6     -3.6914761380     7.8146964590     6.9999711790
  6     -3.6914822900     9.2355397040     6.9999711790
  6     -4.9219784380     9.9459666550     6.9999711790
  6      3.6914822900     0.7104376070     6.9999711790
  6      2.4657511230     1.4301860410     7.0143231380
  6      2.4610600890     2.8448807850     7.0281091740
  6      1.2570594610     3.5673538560     7.0855960370
  6      1.2137856500     4.9646819020     7.1071456470
  6      0.0066164490     5.6721477830     7.0619777460
  6      0.0054059550     7.1082125180     7.0696624850
  6     -1.1905023500     7.8263694360     7.0956325660
  6     -1.2251645880     9.2353662290     7.0199376410
  6     -2.4609984480     9.9459666550     6.9999711790
  6      6.1524745850     0.7104376070     6.9999711790
  6      4.9311247990     1.4198603350     6.9718385320
  6      4.9279499320     2.8371325840     6.9327133530
  6      3.7082171940     3.5595182520     6.9834733430
  6      3.7157586150     4.9518881210     7.0652212800
  6      2.4705460590     5.6855047950     7.4579572560
  6      2.4700347790     7.1345386280     7.1039376310
  6      1.2532027240     7.8190072300     7.0360936810
  6      1.2368325990     9.2375632700     6.9978605530
  6     -0.0000061520     9.9459666550     6.9999711790
  6      8.6134668800     0.7104376070     6.9999711790
  6      7.3838594730     1.4303115520     6.9895947170
  6      7.3901542900     2.8383732710     6.9718723560
  6      6.1494640320     3.5524123090     6.9581748980
  6      6.1251215620     4.9481404850     7.0224291790
  6      4.9275615280     5.6624816520     7.0228938670
  6      4.9295156690     7.1067393300     7.0414602580
  6      3.6973184740     7.8184488050     7.0448961660
  6      3.6942725000     9.2417516740     7.0012829790
  6      2.4609861430     9.9459666550     6.9999711790
  6     11.0744468710     0.7104376070     6.9999711790
  6      9.8439568750     1.4208539020     6.9999711790
  6      9.8439507230     2.8416971470     6.9999711790
  6      8.6184573290     3.5571326460     6.9536307090
  6      8.6134545760     4.9729779990     6.9999711790
  6      7.3711273960     5.6727438780     7.3946129610
  6      7.3829584280     7.1042588520     6.9999711790
  6      6.1521244680     7.8123825070     6.9850628750
  6      6.1524622800     9.2355397040     6.9999711790
  6      4.9219661330     9.9459666550     6.9999711790
  8      2.4872782380     5.7295873910     8.9561760400
  1      2.1837029010     4.8466156500     9.2613377420
  8     -2.5674768200     7.1191349680     8.9206874580
  1     -1.7643786980     6.6752679420     9.2692224710
  8      7.3137399270     5.6528463610     8.8761571310
  1      8.1293079390     6.1330049230     9.1746753720
  8     -0.0554309900     2.8730804840     8.9214238720
  1      0.1636314520     1.9700825610     9.2305728020
 RECIP-PRIMVEC
    0.0812684381    0.0469203765   -0.0000000000

    0.0000000000    0.0938407530    0.0000000000

    0.0000000000   -0.0000000000    0.0714285798

 RECIP-CONVVEC
    0.0812684381    0.0469203765   -0.0000000000

    0.0000000000    0.0938407530    0.0000000000

    0.0000000000   -0.0000000000    0.0714285798

 WIGNER-SEITZ-PRIMCELL
           4
  0.6152450E+01 -0.3552115E+01 -0.6999999E+01   0.1000000E+01 -0.0000000E+00 -0.0000000E+00
  0.6152450E+01  0.3552115E+01 -0.6999999E+01   0.1000000E+01 -0.0000000E+00 -0.0000000E+00
  0.6152450E+01  0.3552115E+01  0.6999999E+01   0.1000000E+01 -0.0000000E+00 -0.0000000E+00
  0.6152450E+01 -0.3552115E+01  0.6999999E+01   0.1000000E+01 -0.0000000E+00 -0.0000000E+00
           4
  0.6152450E+01 -0.3552115E+01  0.6999999E+01   0.5000002E+00 -0.8660253E+00 -0.1435454E-15
 -0.4999987E-09 -0.7104236E+01  0.6999999E+01   0.5000002E+00 -0.8660253E+00 -0.1435454E-15
 -0.5000007E-09 -0.7104236E+01 -0.6999999E+01   0.5000002E+00 -0.8660253E+00 -0.1435454E-15
  0.6152450E+01 -0.3552115E+01 -0.6999999E+01   0.5000002E+00 -0.8660253E+00 -0.1435454E-15
           4
  0.6152450E+01  0.3552115E+01 -0.6999999E+01   0.5000002E+00  0.8660253E+00 -0.7210489E-16
  0.4999987E-09  0.7104236E+01 -0.6999999E+01   0.5000002E+00  0.8660253E+00 -0.7210489E-16
  0.5000007E-09  0.7104236E+01  0.6999999E+01   0.5000002E+00  0.8660253E+00 -0.7210489E-16
  0.6152450E+01  0.3552115E+01  0.6999999E+01   0.5000002E+00  0.8660253E+00 -0.7210489E-16
           6
 -0.6152450E+01 -0.3552115E+01 -0.6999999E+01  -0.1625643E-15  0.0000000E+00 -0.1000000E+01
 -0.6152450E+01  0.3552115E+01 -0.6999999E+01  -0.1625643E-15  0.0000000E+00 -0.1000000E+01
  0.4999987E-09  0.7104236E+01 -0.6999999E+01  -0.1625643E-15  0.0000000E+00 -0.1000000E+01
  0.6152450E+01  0.3552115E+01 -0.6999999E+01  -0.1625643E-15  0.0000000E+00 -0.1000000E+01
  0.6152450E+01 -0.3552115E+01 -0.6999999E+01  -0.1625643E-15  0.0000000E+00 -0.1000000E+01
 -0.5000007E-09 -0.7104236E+01 -0.6999999E+01  -0.1625643E-15  0.0000000E+00 -0.1000000E+01
           6
 -0.5000007E-09 -0.7104236E+01  0.6999999E+01  -0.3251285E-15 -0.0000000E+00  0.1000000E+01
  0.6152450E+01 -0.3552115E+01  0.6999999E+01  -0.3251285E-15 -0.0000000E+00  0.1000000E+01
  0.6152450E+01  0.3552115E+01  0.6999999E+01  -0.3251285E-15 -0.0000000E+00  0.1000000E+01
  0.4999987E-09  0.7104236E+01  0.6999999E+01  -0.3251285E-15 -0.0000000E+00  0.1000000E+01
 -0.6152450E+01  0.3552115E+01  0.6999999E+01  -0.3251285E-15 -0.0000000E+00  0.1000000E+01
 -0.6152450E+01 -0.3552115E+01  0.6999999E+01  -0.3251285E-15 -0.0000000E+00  0.1000000E+01
           4
 -0.6152450E+01 -0.3552115E+01  0.6999999E+01  -0.5000002E+00 -0.8660253E+00  0.0000000E+00
 -0.6152450E+01 -0.3552115E+01 -0.6999999E+01  -0.5000002E+00 -0.8660253E+00  0.0000000E+00
 -0.5000007E-09 -0.7104236E+01 -0.6999999E+01  -0.5000002E+00 -0.8660253E+00  0.0000000E+00
 -0.4999997E-09 -0.7104236E+01  0.6999999E+01  -0.5000002E+00 -0.8660253E+00  0.0000000E+00
           4
  0.4999997E-09  0.7104236E+01  0.6999999E+01  -0.5000002E+00  0.8660253E+00  0.1428811E-15
  0.4999987E-09  0.7104236E+01 -0.6999999E+01  -0.5000002E+00  0.8660253E+00  0.1428811E-15
 -0.6152450E+01  0.3552115E+01 -0.6999999E+01  -0.5000002E+00  0.8660253E+00  0.1428811E-15
 -0.6152450E+01  0.3552115E+01  0.6999999E+01  -0.5000002E+00  0.8660253E+00  0.1428811E-15
           4
 -0.6152450E+01 -0.3552115E+01  0.6999999E+01  -0.1000000E+01  0.0000000E+00  0.6344132E-16
 -0.6152450E+01  0.3552115E+01  0.6999999E+01  -0.1000000E+01  0.0000000E+00  0.6344132E-16
 -0.6152450E+01  0.3552115E+01 -0.6999999E+01  -0.1000000E+01  0.0000000E+00  0.6344132E-16
 -0.6152450E+01 -0.3552115E+01 -0.6999999E+01  -0.1000000E+01  0.0000000E+00  0.6344132E-16
 WIGNER-SEITZ-PRIMCELL_END
 WIGNER-SEITZ-CONVCELL
           4
  0.6152450E+01 -0.3552115E+01 -0.6999999E+01   0.1000000E+01 -0.0000000E+00 -0.0000000E+00
  0.6152450E+01  0.3552115E+01 -0.6999999E+01   0.1000000E+01 -0.0000000E+00 -0.0000000E+00
  0.6152450E+01  0.3552115E+01  0.6999999E+01   0.1000000E+01 -0.0000000E+00 -0.0000000E+00
  0.6152450E+01 -0.3552115E+01  0.6999999E+01   0.1000000E+01 -0.0000000E+00 -0.0000000E+00
           4
  0.6152450E+01 -0.3552115E+01  0.6999999E+01   0.5000002E+00 -0.8660253E+00 -0.1435454E-15
 -0.4999987E-09 -0.7104236E+01  0.6999999E+01   0.5000002E+00 -0.8660253E+00 -0.1435454E-15
 -0.5000007E-09 -0.7104236E+01 -0.6999999E+01   0.5000002E+00 -0.8660253E+00 -0.1435454E-15
  0.6152450E+01 -0.3552115E+01 -0.6999999E+01   0.5000002E+00 -0.8660253E+00 -0.1435454E-15
           4
  0.6152450E+01  0.3552115E+01 -0.6999999E+01   0.5000002E+00  0.8660253E+00 -0.7210489E-16
  0.4999987E-09  0.7104236E+01 -0.6999999E+01   0.5000002E+00  0.8660253E+00 -0.7210489E-16
  0.5000007E-09  0.7104236E+01  0.6999999E+01   0.5000002E+00  0.8660253E+00 -0.7210489E-16
  0.6152450E+01  0.3552115E+01  0.6999999E+01   0.5000002E+00  0.8660253E+00 -0.7210489E-16
           6
 -0.6152450E+01 -0.3552115E+01 -0.6999999E+01  -0.1625643E-15  0.0000000E+00 -0.1000000E+01
 -0.6152450E+01  0.3552115E+01 -0.6999999E+01  -0.1625643E-15  0.0000000E+00 -0.1000000E+01
  0.4999987E-09  0.7104236E+01 -0.6999999E+01  -0.1625643E-15  0.0000000E+00 -0.1000000E+01
  0.6152450E+01  0.3552115E+01 -0.6999999E+01  -0.1625643E-15  0.0000000E+00 -0.1000000E+01
  0.6152450E+01 -0.3552115E+01 -0.6999999E+01  -0.1625643E-15  0.0000000E+00 -0.1000000E+01
 -0.5000007E-09 -0.7104236E+01 -0.6999999E+01  -0.1625643E-15  0.0000000E+00 -0.1000000E+01
           6
 -0.5000007E-09 -0.7104236E+01  0.6999999E+01  -0.3251285E-15 -0.0000000E+00  0.1000000E+01
  0.6152450E+01 -0.3552115E+01  0.6999999E+01  -0.3251285E-15 -0.0000000E+00  0.1000000E+01
  0.6152450E+01  0.3552115E+01  0.6999999E+01  -0.3251285E-15 -0.0000000E+00  0.1000000E+01
  0.4999987E-09  0.7104236E+01  0.6999999E+01  -0.3251285E-15 -0.0000000E+00  0.1000000E+01
 -0.6152450E+01  0.3552115E+01  0.6999999E+01  -0.3251285E-15 -0.0000000E+00  0.1000000E+01
 -0.6152450E+01 -0.3552115E+01  0.6999999E+01  -0.3251285E-15 -0.0000000E+00  0.1000000E+01
           4
 -0.6152450E+01 -0.3552115E+01  0.6999999E+01  -0.5000002E+00 -0.8660253E+00  0.0000000E+00
 -0.6152450E+01 -0.3552115E+01 -0.6999999E+01  -0.5000002E+00 -0.8660253E+00  0.0000000E+00
 -0.5000007E-09 -0.7104236E+01 -0.6999999E+01  -0.5000002E+00 -0.8660253E+00  0.0000000E+00
 -0.4999997E-09 -0.7104236E+01  0.6999999E+01  -0.5000002E+00 -0.8660253E+00  0.0000000E+00
           4
  0.4999997E-09  0.7104236E+01  0.6999999E+01  -0.5000002E+00  0.8660253E+00  0.1428811E-15
  0.4999987E-09  0.7104236E+01 -0.6999999E+01  -0.5000002E+00  0.8660253E+00  0.1428811E-15
 -0.6152450E+01  0.3552115E+01 -0.6999999E+01  -0.5000002E+00  0.8660253E+00  0.1428811E-15
 -0.6152450E+01  0.3552115E+01  0.6999999E+01  -0.5000002E+00  0.8660253E+00  0.1428811E-15
           4
 -0.6152450E+01 -0.3552115E+01  0.6999999E+01  -0.1000000E+01  0.0000000E+00  0.6344132E-16
 -0.6152450E+01  0.3552115E+01  0.6999999E+01  -0.1000000E+01  0.0000000E+00  0.6344132E-16
 -0.6152450E+01  0.3552115E+01 -0.6999999E+01  -0.1000000E+01  0.0000000E+00  0.6344132E-16
 -0.6152450E+01 -0.3552115E+01 -0.6999999E+01  -0.1000000E+01  0.0000000E+00  0.6344132E-16
 WIGNER-SEITZ-CONVCELL_END
 BRILLOUIN-ZONE-PRIMCELL
           4
 -0.5417897E-01  0.3813147E-11 -0.3571429E-01  -0.8660253E+00 -0.5000002E+00 -0.3418542E-26
 -0.2708947E-01 -0.4692038E-01 -0.3571429E-01  -0.8660253E+00 -0.5000002E+00 -0.3418542E-26
 -0.2708947E-01 -0.4692038E-01  0.3571429E-01  -0.8660253E+00 -0.5000002E+00 -0.3418542E-26
 -0.5417897E-01  0.3813141E-11  0.3571429E-01  -0.8660253E+00 -0.5000002E+00 -0.3418542E-26
           4
 -0.5417897E-01  0.3813147E-11  0.3571429E-01  -0.8660253E+00  0.5000002E+00  0.5603216E-16
 -0.2708947E-01  0.4692038E-01  0.3571429E-01  -0.8660253E+00  0.5000002E+00  0.5603216E-16
 -0.2708947E-01  0.4692038E-01 -0.3571429E-01  -0.8660253E+00  0.5000002E+00  0.5603216E-16
 -0.5417897E-01  0.3813147E-11 -0.3571429E-01  -0.8660253E+00  0.5000002E+00  0.5603216E-16
           4
 -0.2708947E-01 -0.4692038E-01 -0.3571429E-01  -0.3732495E-31 -0.1000000E+01  0.2793475E-16
  0.2708947E-01 -0.4692038E-01 -0.3571429E-01  -0.3732495E-31 -0.1000000E+01  0.2793475E-16
  0.2708947E-01 -0.4692038E-01  0.3571429E-01  -0.3732495E-31 -0.1000000E+01  0.2793475E-16
 -0.2708947E-01 -0.4692038E-01  0.3571429E-01  -0.3732495E-31 -0.1000000E+01  0.2793475E-16
           6
 -0.5417897E-01  0.3813147E-11 -0.3571429E-01   0.0000000E+00 -0.3411994E-15 -0.1000000E+01
 -0.2708947E-01  0.4692038E-01 -0.3571429E-01   0.0000000E+00 -0.3411994E-15 -0.1000000E+01
  0.2708947E-01  0.4692038E-01 -0.3571429E-01   0.0000000E+00 -0.3411994E-15 -0.1000000E+01
  0.5417897E-01 -0.3813153E-11 -0.3571429E-01   0.0000000E+00 -0.3411994E-15 -0.1000000E+01
  0.2708947E-01 -0.4692038E-01 -0.3571429E-01   0.0000000E+00 -0.3411994E-15 -0.1000000E+01
 -0.2708947E-01 -0.4692038E-01 -0.3571429E-01   0.0000000E+00 -0.3411994E-15 -0.1000000E+01
           6
 -0.2708947E-01 -0.4692038E-01  0.3571429E-01  -0.0000000E+00 -0.3411994E-15  0.1000000E+01
  0.2708947E-01 -0.4692038E-01  0.3571429E-01  -0.0000000E+00 -0.3411994E-15  0.1000000E+01
  0.5417897E-01 -0.3813144E-11  0.3571429E-01  -0.0000000E+00 -0.3411994E-15  0.1000000E+01
  0.2708947E-01  0.4692038E-01  0.3571429E-01  -0.0000000E+00 -0.3411994E-15  0.1000000E+01
 -0.2708947E-01  0.4692038E-01  0.3571429E-01  -0.0000000E+00 -0.3411994E-15  0.1000000E+01
 -0.5417897E-01  0.3813147E-11  0.3571429E-01  -0.0000000E+00 -0.3411994E-15  0.1000000E+01
           4
 -0.2708947E-01  0.4692038E-01  0.3571429E-01  -0.1280737E-15  0.1000000E+01  0.1120644E-15
  0.2708947E-01  0.4692038E-01  0.3571429E-01  -0.1280737E-15  0.1000000E+01  0.1120644E-15
  0.2708947E-01  0.4692038E-01 -0.3571429E-01  -0.1280737E-15  0.1000000E+01  0.1120644E-15
 -0.2708947E-01  0.4692038E-01 -0.3571429E-01  -0.1280737E-15  0.1000000E+01  0.1120644E-15
           4
  0.2708947E-01 -0.4692038E-01 -0.3571429E-01   0.8660253E+00 -0.5000002E+00 -0.4353846E-16
  0.5417897E-01 -0.3813147E-11 -0.3571429E-01   0.8660253E+00 -0.5000002E+00 -0.4353846E-16
  0.5417897E-01 -0.3813153E-11  0.3571429E-01   0.8660253E+00 -0.5000002E+00 -0.4353846E-16
  0.2708947E-01 -0.4692038E-01  0.3571429E-01   0.8660253E+00 -0.5000002E+00 -0.4353846E-16
           4
  0.2708947E-01  0.4692038E-01  0.3571429E-01   0.8660253E+00  0.5000002E+00 -0.1712065E-15
  0.5417897E-01 -0.3813134E-11  0.3571429E-01   0.8660253E+00  0.5000002E+00 -0.1712065E-15
  0.5417897E-01 -0.3813147E-11 -0.3571429E-01   0.8660253E+00  0.5000002E+00 -0.1712065E-15
  0.2708947E-01  0.4692038E-01 -0.3571429E-01   0.8660253E+00  0.5000002E+00 -0.1712065E-15
 BRILLOUIN-ZONE-PRIMCELL_END
 BRILLOUIN-ZONE-CONVCELL
           4
 -0.5417897E-01  0.3813147E-11 -0.3571429E-01  -0.8660253E+00 -0.5000002E+00 -0.3418542E-26
 -0.2708947E-01 -0.4692038E-01 -0.3571429E-01  -0.8660253E+00 -0.5000002E+00 -0.3418542E-26
 -0.2708947E-01 -0.4692038E-01  0.3571429E-01  -0.8660253E+00 -0.5000002E+00 -0.3418542E-26
 -0.5417897E-01  0.3813141E-11  0.3571429E-01  -0.8660253E+00 -0.5000002E+00 -0.3418542E-26
           4
 -0.5417897E-01  0.3813147E-11  0.3571429E-01  -0.8660253E+00  0.5000002E+00  0.5603216E-16
 -0.2708947E-01  0.4692038E-01  0.3571429E-01  -0.8660253E+00  0.5000002E+00  0.5603216E-16
 -0.2708947E-01  0.4692038E-01 -0.3571429E-01  -0.8660253E+00  0.5000002E+00  0.5603216E-16
 -0.5417897E-01  0.3813147E-11 -0.3571429E-01  -0.8660253E+00  0.5000002E+00  0.5603216E-16
           4
 -0.2708947E-01 -0.4692038E-01 -0.3571429E-01  -0.3732495E-31 -0.1000000E+01  0.2793475E-16
  0.2708947E-01 -0.4692038E-01 -0.3571429E-01  -0.3732495E-31 -0.1000000E+01  0.2793475E-16
  0.2708947E-01 -0.4692038E-01  0.3571429E-01  -0.3732495E-31 -0.1000000E+01  0.2793475E-16
 -0.2708947E-01 -0.4692038E-01  0.3571429E-01  -0.3732495E-31 -0.1000000E+01  0.2793475E-16
           6
 -0.5417897E-01  0.3813147E-11 -0.3571429E-01   0.0000000E+00 -0.3411994E-15 -0.1000000E+01
 -0.2708947E-01  0.4692038E-01 -0.3571429E-01   0.0000000E+00 -0.3411994E-15 -0.1000000E+01
  0.2708947E-01  0.4692038E-01 -0.3571429E-01   0.0000000E+00 -0.3411994E-15 -0.1000000E+01
  0.5417897E-01 -0.3813153E-11 -0.3571429E-01   0.0000000E+00 -0.3411994E-15 -0.1000000E+01
  0.2708947E-01 -0.4692038E-01 -0.3571429E-01   0.0000000E+00 -0.3411994E-15 -0.1000000E+01
 -0.2708947E-01 -0.4692038E-01 -0.3571429E-01   0.0000000E+00 -0.3411994E-15 -0.1000000E+01
           6
 -0.2708947E-01 -0.4692038E-01  0.3571429E-01  -0.0000000E+00 -0.3411994E-15  0.1000000E+01
  0.2708947E-01 -0.4692038E-01  0.3571429E-01  -0.0000000E+00 -0.3411994E-15  0.1000000E+01
  0.5417897E-01 -0.3813144E-11  0.3571429E-01  -0.0000000E+00 -0.3411994E-15  0.1000000E+01
  0.2708947E-01  0.4692038E-01  0.3571429E-01  -0.0000000E+00 -0.3411994E-15  0.1000000E+01
 -0.2708947E-01  0.4692038E-01  0.3571429E-01  -0.0000000E+00 -0.3411994E-15  0.1000000E+01
 -0.5417897E-01  0.3813147E-11  0.3571429E-01  -0.0000000E+00 -0.3411994E-15  0.1000000E+01
           4
 -0.2708947E-01  0.4692038E-01  0.3571429E-01  -0.1280737E-15  0.1000000E+01  0.1120644E-15
  0.2708947E-01  0.4692038E-01  0.3571429E-01  -0.1280737E-15  0.1000000E+01  0.1120644E-15
  0.2708947E-01  0.4692038E-01 -0.3571429E-01  -0.1280737E-15  0.1000000E+01  0.1120644E-15
 -0.2708947E-01  0.4692038E-01 -0.3571429E-01  -0.1280737E-15  0.1000000E+01  0.1120644E-15
           4
  0.2708947E-01 -0.4692038E-01 -0.3571429E-01   0.8660253E+00 -0.5000002E+00 -0.4353846E-16
  0.5417897E-01 -0.3813147E-11 -0.3571429E-01   0.8660253E+00 -0.5000002E+00 -0.4353846E-16
  0.5417897E-01 -0.3813153E-11  0.3571429E-01   0.8660253E+00 -0.5000002E+00 -0.4353846E-16
  0.2708947E-01 -0.4692038E-01  0.3571429E-01   0.8660253E+00 -0.5000002E+00 -0.4353846E-16
           4
  0.2708947E-01  0.4692038E-01  0.3571429E-01   0.8660253E+00  0.5000002E+00 -0.1712065E-15
  0.5417897E-01 -0.3813134E-11  0.3571429E-01   0.8660253E+00  0.5000002E+00 -0.1712065E-15
  0.5417897E-01 -0.3813147E-11 -0.3571429E-01   0.8660253E+00  0.5000002E+00 -0.1712065E-15
  0.2708947E-01  0.4692038E-01 -0.3571429E-01   0.8660253E+00  0.5000002E+00 -0.1712065E-15
 BRILLOUIN-ZONE-CONVCELL_END
 ATOMS
    6    1.2305023000    0.7104376070    6.9999711790   -0.0243961100    0.0113700700   -0.0029871400
    6    0.0000123050    1.4208539020    6.9999711790    0.0045165000   -0.0513767100    0.0241344100
    6    0.0017527350    2.8412666090    7.3905202580    0.0001415700    0.0000194400    0.0001850400
    6   -1.2304838430    3.5521347540    6.9999711790   -0.0470577000    0.0170737700    0.0104764500
    6   -1.2386262290    4.9586384510    6.9701013150   -0.0001604300    0.0000350600   -0.0003352000
    6   -2.4609799900    5.6834156060    6.9999711790   -0.0366347000   -0.0690370100    0.0017394900
    6   -2.4532110820    7.1050355720    7.4064056920   -0.0000256100    0.0000258000   -0.0000854900
    6   -3.6914761380    7.8146964590    6.9999711790   -0.0682043900    0.0052541000    0.0162353800
    6   -3.6914822900    9.2355397040    6.9999711790   -0.0106891200   -0.0223131000   -0.0107619800
    6   -4.9219784380    9.9459666550    6.9999711790   -0.0056956600   -0.0030167000   -0.0116712600
    6    3.6914822900    0.7104376070    6.9999711790    0.0014158900   -0.0164732800   -0.0044220300
    6    2.4657511230    1.4301860410    7.0143231380   -0.0000035400   -0.0002120200    0.0002787800
    6    2.4610600890    2.8448807850    7.0281091740   -0.0001895600   -0.0000010200   -0.0003355600
    6    1.2570594610    3.5673538560    7.0855960370   -0.0002910400    0.0001387800   -0.0004140900
    6    1.2137856500    4.9646819020    7.1071456470   -0.0000280000   -0.0001698000   -0.0002555200
    6    0.0066164490    5.6721477830    7.0619777460   -0.0003096800    0.0001476500    0.0000767800
    6    0.0054059550    7.1082125180    7.0696624850   -0.0003235900    0.0000833200    0.0000427300
    6   -1.1905023500    7.8263694360    7.0956325660    0.0001610800   -0.0000872400   -0.0001947100
    6   -1.2251645880    9.2353662290    7.0199376410   -0.0001081700    0.0000160500   -0.0002434900
    6   -2.4609984480    9.9459666550    6.9999711790    0.0145098600    0.0197711900    0.0089080800
    6    6.1524745850    0.7104376070    6.9999711790   -0.0013892800    0.0070964400   -0.0081412800
    6    4.9311247990    1.4198603350    6.9718385320    0.0000397000   -0.0002883900   -0.0003068800
    6    4.9279499320    2.8371325840    6.9327133530   -0.0002694000    0.0000079100   -0.0000194400
    6    3.7082171940    3.5595182520    6.9834733430    0.0001181700    0.0000365500   -0.0003007700
    6    3.7157586150    4.9518881210    7.0652212800   -0.0003661300   -0.0002857300   -0.0000458600
    6    2.4705460590    5.6855047950    7.4579572560   -0.0003959300    0.0001366900   -0.0003102000
    6    2.4700347790    7.1345386280    7.1039376310    0.0002588100    0.0002163700   -0.0003840000
    6    1.2532027240    7.8190072300    7.0360936810    0.0000302200   -0.0000251600   -0.0005586100
    6    1.2368325990    9.2375632700    6.9978605530   -0.0001091600    0.0001650500    0.0003060700
    6   -0.0000061520    9.9459666550    6.9999711790    0.0088837900    0.0088164300   -0.0023612500
    6    8.6134668800    0.7104376070    6.9999711790    0.0202988100    0.0134627300   -0.0014818300
    6    7.3838594730    1.4303115520    6.9895947170    0.0000494700   -0.0002540900    0.0009490100
    6    7.3901542900    2.8383732710    6.9718723560   -0.0000392800    0.0002421000    0.0006425700
    6    6.1494640320    3.5524123090    6.9581748980   -0.0000463600   -0.0001549600    0.0003062400
    6    6.1251215620    4.9481404850    7.0224291790   -0.0003557800   -0.0001753800    0.0006691500
    6    4.9275615280    5.6624816520    7.0228938670   -0.0004404300    0.0000979800    0.0004476900
    6    4.9295156690    7.1067393300    7.0414602580   -0.0001348300    0.0003037400    0.0000206200
    6    3.6973184740    7.8184488050    7.0448961660   -0.0001527800    0.0002784000    0.0002609300
    6    3.6942725000    9.2417516740    7.0012829790    0.0001105800    0.0001734200    0.0000840000
    6    2.4609861430    9.9459666550    6.9999711790    0.0082514800    0.0017314300   -0.0008053600
    6   11.0744468710    0.7104376070    6.9999711790    0.0260747000    0.0069009800   -0.0080303000
    6    9.8439568750    1.4208539020    6.9999711790   -0.0257554500   -0.0116018000    0.0084133300
    6    9.8439507230    2.8416971470    6.9999711790    0.0202648100    0.0200310100   -0.0229611600
    6    8.6184573290    3.5571326460    6.9536307090    0.0000639300   -0.0000987500    0.0006654800
    6    8.6134545760    4.9729779990    6.9999711790    0.0709440000    0.0030995000    0.0058845600
    6    7.3711273960    5.6727438780    7.3946129610   -0.0001827000   -0.0000190000   -0.0001500000
    6    7.3829584280    7.1042588520    6.9999711790    0.0405045200    0.0522937900    0.0125138400
    6    6.1521244680    7.8123825070    6.9850628750    0.0001578600    0.0000507300    0.0001059100
    6    6.1524622800    9.2355397040    6.9999711790    0.0044879600    0.0027840600   -0.0080562700
    6    4.9219661330    9.9459666550    6.9999711790   -0.0001062300    0.0022217200   -0.0070135000
    8    2.4872782380    5.7295873910    8.9561760400   -0.0000263600    0.0001916500   -0.0002811900
    1    2.1837029010    4.8466156500    9.2613377420   -0.0001928600    0.0003459600    0.0009223500
    8   -2.5674768200    7.1191349680    8.9206874580    0.0003554000    0.0001554700   -0.0000296700
    1   -1.7643786980    6.6752679420    9.2692224710    0.0005239000    0.0002538800   -0.0003868000
    8    7.3137399270    5.6528463610    8.8761571310    0.0003289900    0.0002682600   -0.0002185300
    1    8.1293079390    6.1330049230    9.1746753720    0.0002879900    0.0003714800   -0.0001232800
    8   -0.0554309900    2.8730804840    8.9214238720    0.0007480200    0.0003569600   -0.0002309200