 INFO
nunit      1    1    1
unit   cell
celltype   primcell
shape   parapipedal
 END_INFO
 DIM-GROUP
           3           9
 PRIMVEC
   12.3048999510    0.0000000000    0.0000000000
   -6.1524499750   10.6563509800    0.0000000000
    0.0000000000    0.0000000000   13.9999983580
 CONVVEC
   12.3048999510    0.0000000000    0.0000000000
   -6.1524499750   10.6563509800    0.0000000000
    0.0000000000    0.0000000000   13.9999983580
 PRIMCOORD
          54           1
  6      1.2305023000     0.7104376070     6.9999711790    -0.0133857100    -0.0020867800     0.0028539200
  6      0.0000123050     1.4208539020     6.9999711790     0.0043660300    -0.0055641700     0.0010460400
  6     -0.0042513430     2.8399495050     7.0194451770    -0.0000183900    -0.0000347300    -0.0001099300
  6     -1.2304838430     3.5521347540     6.9999711790    -0.0096711400    -0.0039648900    -0.0043899400
  6     -1.2427272180     4.9736067240     6.9986691790     0.0000175600    -0.0000002800    -0.0003614200
  6     -2.4609799900     5.6834156060     6.9999711790    -0.0059448000    -0.0502637900     0.0212809800
  6     -2.4576084480     7.1072319740     7.4071891320     0.0007186000     0.0003189300    -0.0004772900
  6     -3.6914761380     7.8146964590     6.9999711790    -0.0332317100     0.0621055700     0.0186251900
  6     -3.6914822900     9.2355397040     6.9999711790    -0.0236223900    -0.0698927200    -0.0075575300
  6     -4.9219784380     9.9459666550     6.9999711790    -0.0104991100     0.0066955300    -0.0091367600
  6      3.6914822900     0.7104376070     6.9999711790     0.0060904800    -0.0196944000     0.0020638900
  6      2.4577561060     1.4340464640     7.0238831760    -0.0000438200     0.0001439400    -0.0004068500
  6      2.4458142010     2.8377329840     7.0920211680     0.0001389000     0.0000370200    -0.0002534700
  6      1.2214828080     3.5466680460     7.0988391680    -0.0003728400     0.0001531600     0.0001493300
  6      1.1947319560     4.9680547650     7.1920091570    -0.0000336800     0.0000531400    -0.0003742000
  6      0.0048235210     5.6692000340     7.1001131670     0.0002473500     0.0004686100    -0.0003596800
  6      0.0015565700     7.1246124820     7.0976631680     0.0000002400     0.0002262700    -0.0003154100
  6     -1.1891762940     7.8284005260     7.1019331670    -0.0009016100    -0.0002013300    -0.0000563900
  6     -1.2258141330     9.2454501100     7.0229451770    -0.0000903200     0.0001203300    -0.0000397500
  6     -2.4609984480     9.9459666550     6.9999711790     0.0391233900     0.0415837600     0.0072778100
  6      6.1524745850     0.7104376070     6.9999711790     0.0021281400     0.0069728500    -0.0031043600
  6      4.9290906700     1.4253402250     7.0050391790    -0.0000259400     0.0000925200    -0.0004596200
  6      4.9330897620     2.8445530490     7.0293151760    -0.0002831500    -0.0002035200     0.0000105100
  6      3.7029750670     3.5719235980     7.1037671670     0.0000341200    -0.0002315800    -0.0003559600
  6      3.7120253210     4.9567910020     7.1934231570     0.0000374700     0.0004944500     0.0003324700
  6      2.4563225860     5.6945941190     7.5574791140     0.0002238300    -0.0001508200     0.0002144900
  6      2.4623642910     7.1387214910     7.1532851610     0.0000697400    -0.0001982400     0.0000803600
  6      1.2449113380     7.8258962840     7.0669471710    -0.0003502000     0.0001931000    -0.0002055100
  6      1.2331293960     9.2420720470     7.0052071790     0.0000368000    -0.0000418400     0.0003537600
  6     -0.0000061520     9.9459666550     6.9999711790     0.0044233500     0.0124359700    -0.0042446300
  6      8.6134668800     0.7104376070     6.9999711790     0.0032180900     0.0040648800    -0.0014815900
  6      7.3870067400     1.4219941310     7.0007691790    -0.0000528500    -0.0001645500    -0.0005015700
  6      7.3893631280     2.8401519760     7.0001951790     0.0000594700    -0.0003283900    -0.0008909600
  6      6.1587377790     3.5526569150     7.0211111770    -0.0000933900     0.0001010100    -0.0003358900
  6      6.1579502660     4.9758765270     7.0362871750     0.0000087900    -0.0001301800     0.0000887200
  6      4.9270419040     5.6846304300     7.1037391670     0.0001889300     0.0003442600     0.0002360200
  6      4.9246793630     7.0994954630     7.0789311700     0.0002164100     0.0004578300     0.0003496000
  6      3.6815953030     7.8180425530     7.0758931700    -0.0001095400     0.0000722200     0.0004773200
  6      3.6909654840     9.2388644850     7.0071391780    -0.0000024600     0.0001508800    -0.0003208200
  6      2.4609861430     9.9459666550     6.9999711790     0.0028096300     0.0066848100     0.0005404200
  6     11.0744468710     0.7104376070     6.9999711790    -0.0056790100    -0.0047530500    -0.0027333600
  6      9.8439568750     1.4208539020     6.9999711790     0.0004805800    -0.0033934300     0.0013508800
  6      9.8439507230     2.8416971470     6.9999711790     0.0038047900     0.0003324200    -0.0048511300
  6      8.6161062820     3.5518576890     6.9873851810    -0.0001083100    -0.0000517500     0.0003065100
  6      8.6134545760     4.9729779990     6.9999711790     0.0301117100     0.0120269500    -0.0096700200
  6      7.3785225110     5.6885093420     7.0198791770    -0.0001521700    -0.0000660000    -0.0002954200
  6      7.3829584280     7.1042588520     6.9999711790     0.0085837800     0.0025023700    -0.0030934600
  6      6.1481924800     7.8132152260     7.0062851780    -0.0000211300     0.0000558700     0.0000820800
  6      6.1524622800     9.2355397040     6.9999711790     0.0027386000    -0.0008291300    -0.0002516900
  6      4.9219661330     9.9459666550     6.9999711790    -0.0052443400     0.0054912300    -0.0007428200
  8      2.4589865960     5.8047061930     9.0491509390     0.0001372800    -0.0007209600     0.0003952300
  1      2.6207591160     4.9053954210     9.4042888970     0.0000849800    -0.0007252400    -0.0003717200
  8     -2.5789839810     7.1278839820     8.9032009560     0.0000464300    -0.0001469300    -0.0002221100
  1     -1.7396236880     6.7625736140     9.2565049150    -0.0002074800    -0.0005412100    -0.0001442600
 CONVCOORD
          54           1
  6      1.2305023000     0.7104376070     6.9999711790
  6      0.0000123050     1.4208539020     6.9999711790
  6     -0.0042513430     2.8399495050     7.0194451770
  6     -1.2304838430     3.5521347540     6.9999711790
  6     -1.2427272180     4.9736067240     6.9986691790
  6     -2.4609799900     5.6834156060     6.9999711790
  6     -2.4576084480     7.1072319740     7.4071891320
  6     -3.6914761380     7.8146964590     6.9999711790
  6     -3.6914822900     9.2355397040     6.9999711790
  6     -4.9219784380     9.9459666550     6.9999711790
  6      3.6914822900     0.7104376070     6.9999711790
  6      2.4577561060     1.4340464640     7.0238831760
  6      2.4458142010     2.8377329840     7.0920211680
  6      1.2214828080     3.5466680460     7.0988391680
  6      1.1947319560     4.9680547650     7.1920091570
  6      0.0048235210     5.6692000340     7.1001131670
  6      0.0015565700     7.1246124820     7.0976631680
  6     -1.1891762940     7.8284005260     7.1019331670
  6     -1.2258141330     9.2454501100     7.0229451770
  6     -2.4609984480     9.9459666550     6.9999711790
  6      6.1524745850     0.7104376070     6.9999711790
  6      4.9290906700     1.4253402250     7.0050391790
  6      4.9330897620     2.8445530490     7.0293151760
  6      3.7029750670     3.5719235980     7.1037671670
  6      3.7120253210     4.9567910020     7.1934231570
  6      2.4563225860     5.6945941190     7.5574791140
  6      2.4623642910     7.1387214910     7.1532851610
  6      1.2449113380     7.8258962840     7.0669471710
  6      1.2331293960     9.2420720470     7.0052071790
  6     -0.0000061520     9.9459666550     6.9999711790
  6      8.6134668800     0.7104376070     6.9999711790
  6      7.3870067400     1.4219941310     7.0007691790
  6      7.3893631280     2.8401519760     7.0001951790
  6      6.1587377790     3.5526569150     7.0211111770
  6      6.1579502660     4.9758765270     7.0362871750
  6      4.9270419040     5.6846304300     7.1037391670
  6      4.9246793630     7.0994954630     7.0789311700
  6      3.6815953030     7.8180425530     7.0758931700
  6      3.6909654840     9.2388644850     7.0071391780
  6      2.4609861430     9.9459666550     6.9999711790
  6     11.0744468710     0.7104376070     6.9999711790
  6      9.8439568750     1.4208539020     6.9999711790
  6      9.8439507230     2.8416971470     6.9999711790
  6      8.6161062820     3.5518576890     6.9873851810
  6      8.6134545760     4.9729779990     6.9999711790
  6      7.3785225110     5.6885093420     7.0198791770
  6      7.3829584280     7.1042588520     6.9999711790
  6      6.1481924800     7.8132152260     7.0062851780
  6      6.1524622800     9.2355397040     6.9999711790
  6      4.9219661330     9.9459666550     6.9999711790
  8      2.4589865960     5.8047061930     9.0491509390
  1      2.6207591160     4.9053954210     9.4042888970
  8     -2.5789839810     7.1278839820     8.9032009560
  1     -1.7396236880     6.7625736140     9.2565049150
 RECIP-PRIMVEC
    0.0812684381    0.0469203765   -0.0000000000

    0.0000000000    0.0938407530    0.0000000000

    0.0000000000   -0.0000000000    0.0714285798

 RECIP-CONVVEC
    0.0812684381    0.0469203765   -0.0000000000

    0.0000000000    0.0938407530    0.0000000000

    0.0000000000   -0.0000000000    0.0714285798

 WIGNER-SEITZ-PRIMCELL
           4
  0.6152450E+01 -0.3552115E+01 -0.6999999E+01   0.1000000E+01 -0.0000000E+00 -0.0000000E+00
  0.6152450E+01  0.3552115E+01 -0.6999999E+01   0.1000000E+01 -0.0000000E+00 -0.0000000E+00
  0.6152450E+01  0.3552115E+01  0.6999999E+01   0.1000000E+01 -0.0000000E+00 -0.0000000E+00
  0.6152450E+01 -0.3552115E+01  0.6999999E+01   0.1000000E+01 -0.0000000E+00 -0.0000000E+00
           4
  0.6152450E+01 -0.3552115E+01  0.6999999E+01   0.5000002E+00 -0.8660253E+00 -0.1435454E-15
 -0.4999987E-09 -0.7104236E+01  0.6999999E+01   0.5000002E+00 -0.8660253E+00 -0.1435454E-15
 -0.5000007E-09 -0.7104236E+01 -0.6999999E+01   0.5000002E+00 -0.8660253E+00 -0.1435454E-15
  0.6152450E+01 -0.3552115E+01 -0.6999999E+01   0.5000002E+00 -0.8660253E+00 -0.1435454E-15
           4
  0.6152450E+01  0.3552115E+01 -0.6999999E+01   0.5000002E+00  0.8660253E+00 -0.7210489E-16
  0.4999987E-09  0.7104236E+01 -0.6999999E+01   0.5000002E+00  0.8660253E+00 -0.7210489E-16
  0.5000007E-09  0.7104236E+01  0.6999999E+01   0.5000002E+00  0.8660253E+00 -0.7210489E-16
  0.6152450E+01  0.3552115E+01  0.6999999E+01   0.5000002E+00  0.8660253E+00 -0.7210489E-16
           6
 -0.6152450E+01 -0.3552115E+01 -0.6999999E+01  -0.1625643E-15  0.0000000E+00 -0.1000000E+01
 -0.6152450E+01  0.3552115E+01 -0.6999999E+01  -0.1625643E-15  0.0000000E+00 -0.1000000E+01
  0.4999987E-09  0.7104236E+01 -0.6999999E+01  -0.1625643E-15  0.0000000E+00 -0.1000000E+01
  0.6152450E+01  0.3552115E+01 -0.6999999E+01  -0.1625643E-15  0.0000000E+00 -0.1000000E+01
  0.6152450E+01 -0.3552115E+01 -0.6999999E+01  -0.1625643E-15  0.0000000E+00 -0.1000000E+01
 -0.5000007E-09 -0.7104236E+01 -0.6999999E+01  -0.1625643E-15  0.0000000E+00 -0.1000000E+01
           6
 -0.5000007E-09 -0.7104236E+01  0.6999999E+01  -0.3251285E-15 -0.0000000E+00  0.1000000E+01
  0.6152450E+01 -0.3552115E+01  0.6999999E+01  -0.3251285E-15 -0.0000000E+00  0.1000000E+01
  0.6152450E+01  0.3552115E+01  0.6999999E+01  -0.3251285E-15 -0.0000000E+00  0.1000000E+01
  0.4999987E-09  0.7104236E+01  0.6999999E+01  -0.3251285E-15 -0.0000000E+00  0.1000000E+01
 -0.6152450E+01  0.3552115E+01  0.6999999E+01  -0.3251285E-15 -0.0000000E+00  0.1000000E+01
 -0.6152450E+01 -0.3552115E+01  0.6999999E+01  -0.3251285E-15 -0.0000000E+00  0.1000000E+01
           4
 -0.6152450E+01 -0.3552115E+01  0.6999999E+01  -0.5000002E+00 -0.8660253E+00  0.0000000E+00
 -0.6152450E+01 -0.3552115E+01 -0.6999999E+01  -0.5000002E+00 -0.8660253E+00  0.0000000E+00
 -0.5000007E-09 -0.7104236E+01 -0.6999999E+01  -0.5000002E+00 -0.8660253E+00  0.0000000E+00
 -0.4999997E-09 -0.7104236E+01  0.6999999E+01  -0.5000002E+00 -0.8660253E+00  0.0000000E+00
           4
  0.4999997E-09  0.7104236E+01  0.6999999E+01  -0.5000002E+00  0.8660253E+00  0.1428811E-15
  0.4999987E-09  0.7104236E+01 -0.6999999E+01  -0.5000002E+00  0.8660253E+00  0.1428811E-15
 -0.6152450E+01  0.3552115E+01 -0.6999999E+01  -0.5000002E+00  0.8660253E+00  0.1428811E-15
 -0.6152450E+01  0.3552115E+01  0.6999999E+01  -0.5000002E+00  0.8660253E+00  0.1428811E-15
           4
 -0.6152450E+01 -0.3552115E+01  0.6999999E+01  -0.1000000E+01  0.0000000E+00  0.6344132E-16
 -0.6152450E+01  0.3552115E+01  0.6999999E+01  -0.1000000E+01  0.0000000E+00  0.6344132E-16
 -0.6152450E+01  0.3552115E+01 -0.6999999E+01  -0.1000000E+01  0.0000000E+00  0.6344132E-16
 -0.6152450E+01 -0.3552115E+01 -0.6999999E+01  -0.1000000E+01  0.0000000E+00  0.6344132E-16
 WIGNER-SEITZ-PRIMCELL_END
 WIGNER-SEITZ-CONVCELL
           4
  0.6152450E+01 -0.3552115E+01 -0.6999999E+01   0.1000000E+01 -0.0000000E+00 -0.0000000E+00
  0.6152450E+01  0.3552115E+01 -0.6999999E+01   0.1000000E+01 -0.0000000E+00 -0.0000000E+00
  0.6152450E+01  0.3552115E+01  0.6999999E+01   0.1000000E+01 -0.0000000E+00 -0.0000000E+00
  0.6152450E+01 -0.3552115E+01  0.6999999E+01   0.1000000E+01 -0.0000000E+00 -0.0000000E+00
           4
  0.6152450E+01 -0.3552115E+01  0.6999999E+01   0.5000002E+00 -0.8660253E+00 -0.1435454E-15
 -0.4999987E-09 -0.7104236E+01  0.6999999E+01   0.5000002E+00 -0.8660253E+00 -0.1435454E-15
 -0.5000007E-09 -0.7104236E+01 -0.6999999E+01   0.5000002E+00 -0.8660253E+00 -0.1435454E-15
  0.6152450E+01 -0.3552115E+01 -0.6999999E+01   0.5000002E+00 -0.8660253E+00 -0.1435454E-15
           4
  0.6152450E+01  0.3552115E+01 -0.6999999E+01   0.5000002E+00  0.8660253E+00 -0.7210489E-16
  0.4999987E-09  0.7104236E+01 -0.6999999E+01   0.5000002E+00  0.8660253E+00 -0.7210489E-16
  0.5000007E-09  0.7104236E+01  0.6999999E+01   0.5000002E+00  0.8660253E+00 -0.7210489E-16
  0.6152450E+01  0.3552115E+01  0.6999999E+01   0.5000002E+00  0.8660253E+00 -0.7210489E-16
           6
 -0.6152450E+01 -0.3552115E+01 -0.6999999E+01  -0.1625643E-15  0.0000000E+00 -0.1000000E+01
 -0.6152450E+01  0.3552115E+01 -0.6999999E+01  -0.1625643E-15  0.0000000E+00 -0.1000000E+01
  0.4999987E-09  0.7104236E+01 -0.6999999E+01  -0.1625643E-15  0.0000000E+00 -0.1000000E+01
  0.6152450E+01  0.3552115E+01 -0.6999999E+01  -0.1625643E-15  0.0000000E+00 -0.1000000E+01
  0.6152450E+01 -0.3552115E+01 -0.6999999E+01  -0.1625643E-15  0.0000000E+00 -0.1000000E+01
 -0.5000007E-09 -0.7104236E+01 -0.6999999E+01  -0.1625643E-15  0.0000000E+00 -0.1000000E+01
           6
 -0.5000007E-09 -0.7104236E+01  0.6999999E+01  -0.3251285E-15 -0.0000000E+00  0.1000000E+01
  0.6152450E+01 -0.3552115E+01  0.6999999E+01  -0.3251285E-15 -0.0000000E+00  0.1000000E+01
  0.6152450E+01  0.3552115E+01  0.6999999E+01  -0.3251285E-15 -0.0000000E+00  0.1000000E+01
  0.4999987E-09  0.7104236E+01  0.6999999E+01  -0.3251285E-15 -0.0000000E+00  0.1000000E+01
 -0.6152450E+01  0.3552115E+01  0.6999999E+01  -0.3251285E-15 -0.0000000E+00  0.1000000E+01
 -0.6152450E+01 -0.3552115E+01  0.6999999E+01  -0.3251285E-15 -0.0000000E+00  0.1000000E+01
           4
 -0.6152450E+01 -0.3552115E+01  0.6999999E+01  -0.5000002E+00 -0.8660253E+00  0.0000000E+00
 -0.6152450E+01 -0.3552115E+01 -0.6999999E+01  -0.5000002E+00 -0.8660253E+00  0.0000000E+00
 -0.5000007E-09 -0.7104236E+01 -0.6999999E+01  -0.5000002E+00 -0.8660253E+00  0.0000000E+00
 -0.4999997E-09 -0.7104236E+01  0.6999999E+01  -0.5000002E+00 -0.8660253E+00  0.0000000E+00
           4
  0.4999997E-09  0.7104236E+01  0.6999999E+01  -0.5000002E+00  0.8660253E+00  0.1428811E-15
  0.4999987E-09  0.7104236E+01 -0.6999999E+01  -0.5000002E+00  0.8660253E+00  0.1428811E-15
 -0.6152450E+01  0.3552115E+01 -0.6999999E+01  -0.5000002E+00  0.8660253E+00  0.1428811E-15
 -0.6152450E+01  0.3552115E+01  0.6999999E+01  -0.5000002E+00  0.8660253E+00  0.1428811E-15
           4
 -0.6152450E+01 -0.3552115E+01  0.6999999E+01  -0.1000000E+01  0.0000000E+00  0.6344132E-16
 -0.6152450E+01  0.3552115E+01  0.6999999E+01  -0.1000000E+01  0.0000000E+00  0.6344132E-16
 -0.6152450E+01  0.3552115E+01 -0.6999999E+01  -0.1000000E+01  0.0000000E+00  0.6344132E-16
 -0.6152450E+01 -0.3552115E+01 -0.6999999E+01  -0.1000000E+01  0.0000000E+00  0.6344132E-16
 WIGNER-SEITZ-CONVCELL_END
 BRILLOUIN-ZONE-PRIMCELL
           4
 -0.5417897E-01  0.3813147E-11 -0.3571429E-01  -0.8660253E+00 -0.5000002E+00 -0.3418542E-26
 -0.2708947E-01 -0.4692038E-01 -0.3571429E-01  -0.8660253E+00 -0.5000002E+00 -0.3418542E-26
 -0.2708947E-01 -0.4692038E-01  0.3571429E-01  -0.8660253E+00 -0.5000002E+00 -0.3418542E-26
 -0.5417897E-01  0.3813141E-11  0.3571429E-01  -0.8660253E+00 -0.5000002E+00 -0.3418542E-26
           4
 -0.5417897E-01  0.3813147E-11  0.3571429E-01  -0.8660253E+00  0.5000002E+00  0.5603216E-16
 -0.2708947E-01  0.4692038E-01  0.3571429E-01  -0.8660253E+00  0.5000002E+00  0.5603216E-16
 -0.2708947E-01  0.4692038E-01 -0.3571429E-01  -0.8660253E+00  0.5000002E+00  0.5603216E-16
 -0.5417897E-01  0.3813147E-11 -0.3571429E-01  -0.8660253E+00  0.5000002E+00  0.5603216E-16
           4
 -0.2708947E-01 -0.4692038E-01 -0.3571429E-01  -0.3732495E-31 -0.1000000E+01  0.2793475E-16
  0.2708947E-01 -0.4692038E-01 -0.3571429E-01  -0.3732495E-31 -0.1000000E+01  0.2793475E-16
  0.2708947E-01 -0.4692038E-01  0.3571429E-01  -0.3732495E-31 -0.1000000E+01  0.2793475E-16
 -0.2708947E-01 -0.4692038E-01  0.3571429E-01  -0.3732495E-31 -0.1000000E+01  0.2793475E-16
           6
 -0.5417897E-01  0.3813147E-11 -0.3571429E-01   0.0000000E+00 -0.3411994E-15 -0.1000000E+01
 -0.2708947E-01  0.4692038E-01 -0.3571429E-01   0.0000000E+00 -0.3411994E-15 -0.1000000E+01
  0.2708947E-01  0.4692038E-01 -0.3571429E-01   0.0000000E+00 -0.3411994E-15 -0.1000000E+01
  0.5417897E-01 -0.3813153E-11 -0.3571429E-01   0.0000000E+00 -0.3411994E-15 -0.1000000E+01
  0.2708947E-01 -0.4692038E-01 -0.3571429E-01   0.0000000E+00 -0.3411994E-15 -0.1000000E+01
 -0.2708947E-01 -0.4692038E-01 -0.3571429E-01   0.0000000E+00 -0.3411994E-15 -0.1000000E+01
           6
 -0.2708947E-01 -0.4692038E-01  0.3571429E-01  -0.0000000E+00 -0.3411994E-15  0.1000000E+01
  0.2708947E-01 -0.4692038E-01  0.3571429E-01  -0.0000000E+00 -0.3411994E-15  0.1000000E+01
  0.5417897E-01 -0.3813144E-11  0.3571429E-01  -0.0000000E+00 -0.3411994E-15  0.1000000E+01
  0.2708947E-01  0.4692038E-01  0.3571429E-01  -0.0000000E+00 -0.3411994E-15  0.1000000E+01
 -0.2708947E-01  0.4692038E-01  0.3571429E-01  -0.0000000E+00 -0.3411994E-15  0.1000000E+01
 -0.5417897E-01  0.3813147E-11  0.3571429E-01  -0.0000000E+00 -0.3411994E-15  0.1000000E+01
           4
 -0.2708947E-01  0.4692038E-01  0.3571429E-01  -0.1280737E-15  0.1000000E+01  0.1120644E-15
  0.2708947E-01  0.4692038E-01  0.3571429E-01  -0.1280737E-15  0.1000000E+01  0.1120644E-15
  0.2708947E-01  0.4692038E-01 -0.3571429E-01  -0.1280737E-15  0.1000000E+01  0.1120644E-15
 -0.2708947E-01  0.4692038E-01 -0.3571429E-01  -0.1280737E-15  0.1000000E+01  0.1120644E-15
           4
  0.2708947E-01 -0.4692038E-01 -0.3571429E-01   0.8660253E+00 -0.5000002E+00 -0.4353846E-16
  0.5417897E-01 -0.3813147E-11 -0.3571429E-01   0.8660253E+00 -0.5000002E+00 -0.4353846E-16
  0.5417897E-01 -0.3813153E-11  0.3571429E-01   0.8660253E+00 -0.5000002E+00 -0.4353846E-16
  0.2708947E-01 -0.4692038E-01  0.3571429E-01   0.8660253E+00 -0.5000002E+00 -0.4353846E-16
           4
  0.2708947E-01  0.4692038E-01  0.3571429E-01   0.8660253E+00  0.5000002E+00 -0.1712065E-15
  0.5417897E-01 -0.3813134E-11  0.3571429E-01   0.8660253E+00  0.5000002E+00 -0.1712065E-15
  0.5417897E-01 -0.3813147E-11 -0.3571429E-01   0.8660253E+00  0.5000002E+00 -0.1712065E-15
  0.2708947E-01  0.4692038E-01 -0.3571429E-01   0.8660253E+00  0.5000002E+00 -0.1712065E-15
 BRILLOUIN-ZONE-PRIMCELL_END
 BRILLOUIN-ZONE-CONVCELL
           4
 -0.5417897E-01  0.3813147E-11 -0.3571429E-01  -0.8660253E+00 -0.5000002E+00 -0.3418542E-26
 -0.2708947E-01 -0.4692038E-01 -0.3571429E-01  -0.8660253E+00 -0.5000002E+00 -0.3418542E-26
 -0.2708947E-01 -0.4692038E-01  0.3571429E-01  -0.8660253E+00 -0.5000002E+00 -0.3418542E-26
 -0.5417897E-01  0.3813141E-11  0.3571429E-01  -0.8660253E+00 -0.5000002E+00 -0.3418542E-26
           4
 -0.5417897E-01  0.3813147E-11  0.3571429E-01  -0.8660253E+00  0.5000002E+00  0.5603216E-16
 -0.2708947E-01  0.4692038E-01  0.3571429E-01  -0.8660253E+00  0.5000002E+00  0.5603216E-16
 -0.2708947E-01  0.4692038E-01 -0.3571429E-01  -0.8660253E+00  0.5000002E+00  0.5603216E-16
 -0.5417897E-01  0.3813147E-11 -0.3571429E-01  -0.8660253E+00  0.5000002E+00  0.5603216E-16
           4
 -0.2708947E-01 -0.4692038E-01 -0.3571429E-01  -0.3732495E-31 -0.1000000E+01  0.2793475E-16
  0.2708947E-01 -0.4692038E-01 -0.3571429E-01  -0.3732495E-31 -0.1000000E+01  0.2793475E-16
  0.2708947E-01 -0.4692038E-01  0.3571429E-01  -0.3732495E-31 -0.1000000E+01  0.2793475E-16
 -0.2708947E-01 -0.4692038E-01  0.3571429E-01  -0.3732495E-31 -0.1000000E+01  0.2793475E-16
           6
 -0.5417897E-01  0.3813147E-11 -0.3571429E-01   0.0000000E+00 -0.3411994E-15 -0.1000000E+01
 -0.2708947E-01  0.4692038E-01 -0.3571429E-01   0.0000000E+00 -0.3411994E-15 -0.1000000E+01
  0.2708947E-01  0.4692038E-01 -0.3571429E-01   0.0000000E+00 -0.3411994E-15 -0.1000000E+01
  0.5417897E-01 -0.3813153E-11 -0.3571429E-01   0.0000000E+00 -0.3411994E-15 -0.1000000E+01
  0.2708947E-01 -0.4692038E-01 -0.3571429E-01   0.0000000E+00 -0.3411994E-15 -0.1000000E+01
 -0.2708947E-01 -0.4692038E-01 -0.3571429E-01   0.0000000E+00 -0.3411994E-15 -0.1000000E+01
           6
 -0.2708947E-01 -0.4692038E-01  0.3571429E-01  -0.0000000E+00 -0.3411994E-15  0.1000000E+01
  0.2708947E-01 -0.4692038E-01  0.3571429E-01  -0.0000000E+00 -0.3411994E-15  0.1000000E+01
  0.5417897E-01 -0.3813144E-11  0.3571429E-01  -0.0000000E+00 -0.3411994E-15  0.1000000E+01
  0.2708947E-01  0.4692038E-01  0.3571429E-01  -0.0000000E+00 -0.3411994E-15  0.1000000E+01
 -0.2708947E-01  0.4692038E-01  0.3571429E-01  -0.0000000E+00 -0.3411994E-15  0.1000000E+01
 -0.5417897E-01  0.3813147E-11  0.3571429E-01  -0.0000000E+00 -0.3411994E-15  0.1000000E+01
           4
 -0.2708947E-01  0.4692038E-01  0.3571429E-01  -0.1280737E-15  0.1000000E+01  0.1120644E-15
  0.2708947E-01  0.4692038E-01  0.3571429E-01  -0.1280737E-15  0.1000000E+01  0.1120644E-15
  0.2708947E-01  0.4692038E-01 -0.3571429E-01  -0.1280737E-15  0.1000000E+01  0.1120644E-15
 -0.2708947E-01  0.4692038E-01 -0.3571429E-01  -0.1280737E-15  0.1000000E+01  0.1120644E-15
           4
  0.2708947E-01 -0.4692038E-01 -0.3571429E-01   0.8660253E+00 -0.5000002E+00 -0.4353846E-16
  0.5417897E-01 -0.3813147E-11 -0.3571429E-01   0.8660253E+00 -0.5000002E+00 -0.4353846E-16
  0.5417897E-01 -0.3813153E-11  0.3571429E-01   0.8660253E+00 -0.5000002E+00 -0.4353846E-16
  0.2708947E-01 -0.4692038E-01  0.3571429E-01   0.8660253E+00 -0.5000002E+00 -0.4353846E-16
           4
  0.2708947E-01  0.4692038E-01  0.3571429E-01   0.8660253E+00  0.5000002E+00 -0.1712065E-15
  0.5417897E-01 -0.3813134E-11  0.3571429E-01   0.8660253E+00  0.5000002E+00 -0.1712065E-15
  0.5417897E-01 -0.3813147E-11 -0.3571429E-01   0.8660253E+00  0.5000002E+00 -0.1712065E-15
  0.2708947E-01  0.4692038E-01 -0.3571429E-01   0.8660253E+00  0.5000002E+00 -0.1712065E-15
 BRILLOUIN-ZONE-CONVCELL_END
 ATOMS
    6    1.2305023000    0.7104376070    6.9999711790   -0.0133857100   -0.0020867800    0.0028539200
    6    0.0000123050    1.4208539020    6.9999711790    0.0043660300   -0.0055641700    0.0010460400
    6   -0.0042513430    2.8399495050    7.0194451770   -0.0000183900   -0.0000347300   -0.0001099300
    6   -1.2304838430    3.5521347540    6.9999711790   -0.0096711400   -0.0039648900   -0.0043899400
    6   -1.2427272180    4.9736067240    6.9986691790    0.0000175600   -0.0000002800   -0.0003614200
    6   -2.4609799900    5.6834156060    6.9999711790   -0.0059448000   -0.0502637900    0.0212809800
    6   -2.4576084480    7.1072319740    7.4071891320    0.0007186000    0.0003189300   -0.0004772900
    6   -3.6914761380    7.8146964590    6.9999711790   -0.0332317100    0.0621055700    0.0186251900
    6   -3.6914822900    9.2355397040    6.9999711790   -0.0236223900   -0.0698927200   -0.0075575300
    6   -4.9219784380    9.9459666550    6.9999711790   -0.0104991100    0.0066955300   -0.0091367600
    6    3.6914822900    0.7104376070    6.9999711790    0.0060904800   -0.0196944000    0.0020638900
    6    2.4577561060    1.4340464640    7.0238831760   -0.0000438200    0.0001439400   -0.0004068500
    6    2.4458142010    2.8377329840    7.0920211680    0.0001389000    0.0000370200   -0.0002534700
    6    1.2214828080    3.5466680460    7.0988391680   -0.0003728400    0.0001531600    0.0001493300
    6    1.1947319560    4.9680547650    7.1920091570   -0.0000336800    0.0000531400   -0.0003742000
    6    0.0048235210    5.6692000340    7.1001131670    0.0002473500    0.0004686100   -0.0003596800
    6    0.0015565700    7.1246124820    7.0976631680    0.0000002400    0.0002262700   -0.0003154100
    6   -1.1891762940    7.8284005260    7.1019331670   -0.0009016100   -0.0002013300   -0.0000563900
    6   -1.2258141330    9.2454501100    7.0229451770   -0.0000903200    0.0001203300   -0.0000397500
    6   -2.4609984480    9.9459666550    6.9999711790    0.0391233900    0.0415837600    0.0072778100
    6    6.1524745850    0.7104376070    6.9999711790    0.0021281400    0.0069728500   -0.0031043600
    6    4.9290906700    1.4253402250    7.0050391790   -0.0000259400    0.0000925200   -0.0004596200
    6    4.9330897620    2.8445530490    7.0293151760   -0.0002831500   -0.0002035200    0.0000105100
    6    3.7029750670    3.5719235980    7.1037671670    0.0000341200   -0.0002315800   -0.0003559600
    6    3.7120253210    4.9567910020    7.1934231570    0.0000374700    0.0004944500    0.0003324700
    6    2.4563225860    5.6945941190    7.5574791140    0.0002238300   -0.0001508200    0.0002144900
    6    2.4623642910    7.1387214910    7.1532851610    0.0000697400   -0.0001982400    0.0000803600
    6    1.2449113380    7.8258962840    7.0669471710   -0.0003502000    0.0001931000   -0.0002055100
    6    1.2331293960    9.2420720470    7.0052071790    0.0000368000   -0.0000418400    0.0003537600
    6   -0.0000061520    9.9459666550    6.9999711790    0.0044233500    0.0124359700   -0.0042446300
    6    8.6134668800    0.7104376070    6.9999711790    0.0032180900    0.0040648800   -0.0014815900
    6    7.3870067400    1.4219941310    7.0007691790   -0.0000528500   -0.0001645500   -0.0005015700
    6    7.3893631280    2.8401519760    7.0001951790    0.0000594700   -0.0003283900   -0.0008909600
    6    6.1587377790    3.5526569150    7.0211111770   -0.0000933900    0.0001010100   -0.0003358900
    6    6.1579502660    4.9758765270    7.0362871750    0.0000087900   -0.0001301800    0.0000887200
    6    4.9270419040    5.6846304300    7.1037391670    0.0001889300    0.0003442600    0.0002360200
    6    4.9246793630    7.0994954630    7.0789311700    0.0002164100    0.0004578300    0.0003496000
    6    3.6815953030    7.8180425530    7.0758931700   -0.0001095400    0.0000722200    0.0004773200
    6    3.6909654840    9.2388644850    7.0071391780   -0.0000024600    0.0001508800   -0.0003208200
    6    2.4609861430    9.9459666550    6.9999711790    0.0028096300    0.0066848100    0.0005404200
    6   11.0744468710    0.7104376070    6.9999711790   -0.0056790100   -0.0047530500   -0.0027333600
    6    9.8439568750    1.4208539020    6.9999711790    0.0004805800   -0.0033934300    0.0013508800
    6    9.8439507230    2.8416971470    6.9999711790    0.0038047900    0.0003324200   -0.0048511300
    6    8.6161062820    3.5518576890    6.9873851810   -0.0001083100   -0.0000517500    0.0003065100
    6    8.6134545760    4.9729779990    6.9999711790    0.0301117100    0.0120269500   -0.0096700200
    6    7.3785225110    5.6885093420    7.0198791770   -0.0001521700   -0.0000660000   -0.0002954200
    6    7.3829584280    7.1042588520    6.9999711790    0.0085837800    0.0025023700   -0.0030934600
    6    6.1481924800    7.8132152260    7.0062851780   -0.0000211300    0.0000558700    0.0000820800
    6    6.1524622800    9.2355397040    6.9999711790    0.0027386000   -0.0008291300   -0.0002516900
    6    4.9219661330    9.9459666550    6.9999711790   -0.0052443400    0.0054912300   -0.0007428200
    8    2.4589865960    5.8047061930    9.0491509390    0.0001372800   -0.0007209600    0.0003952300
    1    2.6207591160    4.9053954210    9.4042888970    0.0000849800   -0.0007252400   -0.0003717200
    8   -2.5789839810    7.1278839820    8.9032009560    0.0000464300   -0.0001469300   -0.0002221100
    1   -1.7396236880    6.7625736140    9.2565049150   -0.0002074800   -0.0005412100   -0.0001442600
 FRAMES
1      0.0000000000    0.0000000000    0.0000000000     12.3048999510    0.0000000000    0.0000000000
1      0.0000000000    0.0000000000    0.0000000000     -6.1524499750   10.6563509800    0.0000000000
1      0.0000000000    0.0000000000    0.0000000000      0.0000000000    0.0000000000   13.9999983580
1      0.0000000000    0.0000000000   13.9999983580     12.3048999510    0.0000000000   13.9999983580
1      0.0000000000    0.0000000000   13.9999983580     -6.1524499750   10.6563509800   13.9999983580
1     -6.1524499750   10.6563509800    0.0000000000      6.1524499760   10.6563509800    0.0000000000
1     -6.1524499750   10.6563509800    0.0000000000     -6.1524499750   10.6563509800   13.9999983580
1     -6.1524499750   10.6563509800   13.9999983580      6.1524499760   10.6563509800   13.9999983580
1     12.3048999510    0.0000000000    0.0000000000      6.1524499760   10.6563509800    0.0000000000