 INFO
nunit      1    1    1
unit   cell
celltype   primcell
shape   parapipedal
 END_INFO
 DIM-GROUP
           3           9
 PRIMVEC
   12.3048999510    0.0000000000    0.0000000000
   -6.1524499750   10.6563509800    0.0000000000
    0.0000000000    0.0000000000   13.9999983580
 CONVVEC
   12.3048999510    0.0000000000    0.0000000000
   -6.1524499750   10.6563509800    0.0000000000
    0.0000000000    0.0000000000   13.9999983580
 PRIMCOORD
          60           1
  6      1.2305023000     0.7104376070     6.9999711790    -0.0325106300     0.0141626200    -0.0015670000
  6      0.0000123050     1.4208539020     6.9999711790     0.0114131800    -0.0536046700     0.0212475300
  6     -0.0082588210     2.8375761330     7.4027933140     0.0001306200     0.0001917500    -0.0000991400
  6     -1.2304838430     3.5521347540     6.9999711790    -0.0508832400     0.0185523500     0.0107711900
  6     -1.2395405200     4.9589287510     6.9733373020    -0.0000348900     0.0001081100    -0.0004216000
  6     -2.4609799900     5.6834156060     6.9999711790    -0.0364225900    -0.0672511300     0.0004582300
  6     -2.4546473900     7.1063791990     7.4082455010     0.0002797000     0.0001477900    -0.0002611600
  6     -3.6914761380     7.8146964590     6.9999711790    -0.0531570000     0.0317995100     0.0177524000
  6     -3.6914822900     9.2355397040     6.9999711790     0.0055356900    -0.0429169500    -0.0130266400
  6     -4.9219784380     9.9459666550     6.9999711790    -0.0219383700     0.0031419200    -0.0151770500
  6      3.6914822900     0.7104376070     6.9999711790     0.0177318800    -0.0150140800     0.0091687000
  6      2.4604739640     1.4416906700     7.0426589240    -0.0001054400     0.0002192400    -0.0002354200
  6      2.4459277140     2.8519460200     7.0916494960    -0.0001366700    -0.0001548800    -0.0000014700
  6      1.2448646590     3.5712241470     7.1236115630     0.0000478700    -0.0003352000    -0.0002665300
  6      1.2037042280     4.9715932170     7.1467096700    -0.0001702200     0.0005722500     0.0000590500
  6      0.0028412010     5.6763657060     7.0809720760    -0.0000306600    -0.0003208200    -0.0001097800
  6      0.0000319070     7.1164252070     7.0853217350     0.0003723400    -0.0000809700    -0.0007277700
  6     -1.1950025530     7.8327458880     7.1050595490    -0.0002888100    -0.0003188100    -0.0003243200
  6     -1.2268844320     9.2389741930     7.0259203300     0.0000230100     0.0002269100     0.0002228300
  6     -2.4609984480     9.9459666550     6.9999711790     0.0053370900     0.0152267600     0.0012781500
  6      6.1524745850     0.7104376070     6.9999711790    -0.0168353900     0.0049770000     0.0040101700
  6      4.9289135350     1.3867547400     7.0541157110     0.0002953700    -0.0001232400    -0.0000753800
  6      4.9292229540     2.8329610380     7.4266352410    -0.0002714500     0.0000040200    -0.0000035500
  6      3.6815838350     3.5897506710     7.1112707740     0.0002737100     0.0002896100    -0.0001084100
  6      3.6936860920     4.9542000700     7.1273487220    -0.0000843200    -0.0002669100    -0.0002141000
  6      2.4538597910     5.7032793750     7.4866391640     0.0000210700    -0.0001701200     0.0001087600
  6      2.4641490500     7.1447516530     7.1093375560     0.0002289100    -0.0000034500     0.0000712300
  6      1.2376753610     7.8313582920     7.0484084300     0.0000154800    -0.0005274000    -0.0006444500
  6      1.2274236330     9.2375376530     7.0009301930     0.0000303300     0.0001180500     0.0004554600
  6     -0.0000061520     9.9459666550     6.9999711790     0.0054541700     0.0088716200    -0.0133395600
  6      8.6134668800     0.7104376070     6.9999711790     0.0249747300     0.0137575800     0.0007492000
  6      7.3856695730     1.4380532630     7.0162389530    -0.0000436200    -0.0005814800     0.0000216000
  6      7.3956565620     2.8442850100     7.0181126290    -0.0001505000     0.0004883200    -0.0001511400
  6      6.1695723480     3.5732263900     7.0787984360     0.0005626600     0.0001050100     0.0005404000
  6      6.1328224670     4.9446627750     7.0782101840     0.0001589500    -0.0002029200    -0.0002543400
  6      4.9242068120     5.6870600250     7.0967467420     0.0001441900    -0.0000708100     0.0003602900
  6      4.9276274140     7.0831959020     7.0652846860     0.0001327100    -0.0000378600     0.0001025800
  6      3.6775898800     7.8179183320     7.0460078080     0.0000831600     0.0001994500    -0.0001407000
  6      3.6848149720     9.2382182950     6.9968234760     0.0000988900    -0.0004023400     0.0000320000
  6      2.4609861430     9.9459666550     6.9999711790     0.0080885500     0.0050779600    -0.0030528800
  6     11.0744468710     0.7104376070     6.9999711790     0.0268285200    -0.0179674300    -0.0083249900
  6      9.8439568750     1.4208539020     6.9999711790    -0.0344700900    -0.0093303500     0.0081128000
  6      9.8439507230     2.8416971470     6.9999711790     0.0212412900     0.0178113400    -0.0253933400
  6      8.6219111120     3.5586347550     6.9578076220    -0.0001250300    -0.0002869600     0.0001789800
  6      8.6134545760     4.9729779990     6.9999711790     0.0754501400     0.0050773600     0.0075003000
  6      7.3804783690     5.6771712080     7.4021436860     0.0000249200     0.0000575400    -0.0002758300
  6      7.3829584280     7.1042588520     6.9999711790     0.0256254400     0.0567349300     0.0156390400
  6      6.1668653320     7.8131111030     6.9919103720     0.0001578500     0.0000065600     0.0001180100
  6      6.1524622800     9.2355397040     6.9999711790     0.0299788000    -0.0129521600    -0.0085960500
  6      4.9219661330     9.9459666550     6.9999711790    -0.0155264100     0.0228603500    -0.0070219700
  8      2.4779433650     5.7982921990     8.9819895170    -0.0000777000    -0.0001075900     0.0002593100
  1      2.3789293730     4.8807813070     9.3181768950    -0.0001197400     0.0000934800     0.0006051400
  8     -2.5683834570     7.1146377110     8.9220382760     0.0002008300     0.0004598600    -0.0001233000
  1     -1.7404586310     6.7166746320     9.2689035790    -0.0004240400     0.0000172600     0.0000701500
  8      7.3344548810     5.6687767320     8.8890869700    -0.0000610000     0.0000290900    -0.0000076500
  1      8.1489329190     6.1571060190     9.1824990610     0.0001330100     0.0000370300    -0.0003069400
  8     -0.1294511160     2.8301471970     8.9209819480     0.0007657600     0.0001781700     0.0002098900
  1      0.4783372720     2.1291491130     9.2394123170     0.0006813600     0.0009705100     0.0006436500
  8      4.9275027160     2.7380005900     8.9288347850     0.0006802500     0.0003443500    -0.0004601800
  1      5.3126025810     3.5813023160     9.2574370490     0.0006653800     0.0001128800    -0.0000344300
 CONVCOORD
          60           1
  6      1.2305023000     0.7104376070     6.9999711790
  6      0.0000123050     1.4208539020     6.9999711790
  6     -0.0082588210     2.8375761330     7.4027933140
  6     -1.2304838430     3.5521347540     6.9999711790
  6     -1.2395405200     4.9589287510     6.9733373020
  6     -2.4609799900     5.6834156060     6.9999711790
  6     -2.4546473900     7.1063791990     7.4082455010
  6     -3.6914761380     7.8146964590     6.9999711790
  6     -3.6914822900     9.2355397040     6.9999711790
  6     -4.9219784380     9.9459666550     6.9999711790
  6      3.6914822900     0.7104376070     6.9999711790
  6      2.4604739640     1.4416906700     7.0426589240
  6      2.4459277140     2.8519460200     7.0916494960
  6      1.2448646590     3.5712241470     7.1236115630
  6      1.2037042280     4.9715932170     7.1467096700
  6      0.0028412010     5.6763657060     7.0809720760
  6      0.0000319070     7.1164252070     7.0853217350
  6     -1.1950025530     7.8327458880     7.1050595490
  6     -1.2268844320     9.2389741930     7.0259203300
  6     -2.4609984480     9.9459666550     6.9999711790
  6      6.1524745850     0.7104376070     6.9999711790
  6      4.9289135350     1.3867547400     7.0541157110
  6      4.9292229540     2.8329610380     7.4266352410
  6      3.6815838350     3.5897506710     7.1112707740
  6      3.6936860920     4.9542000700     7.1273487220
  6      2.4538597910     5.7032793750     7.4866391640
  6      2.4641490500     7.1447516530     7.1093375560
  6      1.2376753610     7.8313582920     7.0484084300
  6      1.2274236330     9.2375376530     7.0009301930
  6     -0.0000061520     9.9459666550     6.9999711790
  6      8.6134668800     0.7104376070     6.9999711790
  6      7.3856695730     1.4380532630     7.0162389530
  6      7.3956565620     2.8442850100     7.0181126290
  6      6.1695723480     3.5732263900     7.0787984360
  6      6.1328224670     4.9446627750     7.0782101840
  6      4.9242068120     5.6870600250     7.0967467420
  6      4.9276274140     7.0831959020     7.0652846860
  6      3.6775898800     7.8179183320     7.0460078080
  6      3.6848149720     9.2382182950     6.9968234760
  6      2.4609861430     9.9459666550     6.9999711790
  6     11.0744468710     0.7104376070     6.9999711790
  6      9.8439568750     1.4208539020     6.9999711790
  6      9.8439507230     2.8416971470     6.9999711790
  6      8.6219111120     3.5586347550     6.9578076220
  6      8.6134545760     4.9729779990     6.9999711790
  6      7.3804783690     5.6771712080     7.4021436860
  6      7.3829584280     7.1042588520     6.9999711790
  6      6.1668653320     7.8131111030     6.9919103720
  6      6.1524622800     9.2355397040     6.9999711790
  6      4.9219661330     9.9459666550     6.9999711790
  8      2.4779433650     5.7982921990     8.9819895170
  1      2.3789293730     4.8807813070     9.3181768950
  8     -2.5683834570     7.1146377110     8.9220382760
  1     -1.7404586310     6.7166746320     9.2689035790
  8      7.3344548810     5.6687767320     8.8890869700
  1      8.1489329190     6.1571060190     9.1824990610
  8     -0.1294511160     2.8301471970     8.9209819480
  1      0.4783372720     2.1291491130     9.2394123170
  8      4.9275027160     2.7380005900     8.9288347850
  1      5.3126025810     3.5813023160     9.2574370490
 RECIP-PRIMVEC
    0.0812684381    0.0469203765   -0.0000000000

    0.0000000000    0.0938407530    0.0000000000

    0.0000000000   -0.0000000000    0.0714285798

 RECIP-CONVVEC
    0.0812684381    0.0469203765   -0.0000000000

    0.0000000000    0.0938407530    0.0000000000

    0.0000000000   -0.0000000000    0.0714285798

 WIGNER-SEITZ-PRIMCELL
           4
  0.6152450E+01 -0.3552115E+01 -0.6999999E+01   0.1000000E+01 -0.0000000E+00 -0.0000000E+00
  0.6152450E+01  0.3552115E+01 -0.6999999E+01   0.1000000E+01 -0.0000000E+00 -0.0000000E+00
  0.6152450E+01  0.3552115E+01  0.6999999E+01   0.1000000E+01 -0.0000000E+00 -0.0000000E+00
  0.6152450E+01 -0.3552115E+01  0.6999999E+01   0.1000000E+01 -0.0000000E+00 -0.0000000E+00
           4
  0.6152450E+01 -0.3552115E+01  0.6999999E+01   0.5000002E+00 -0.8660253E+00 -0.1435454E-15
 -0.4999987E-09 -0.7104236E+01  0.6999999E+01   0.5000002E+00 -0.8660253E+00 -0.1435454E-15
 -0.5000007E-09 -0.7104236E+01 -0.6999999E+01   0.5000002E+00 -0.8660253E+00 -0.1435454E-15
  0.6152450E+01 -0.3552115E+01 -0.6999999E+01   0.5000002E+00 -0.8660253E+00 -0.1435454E-15
           4
  0.6152450E+01  0.3552115E+01 -0.6999999E+01   0.5000002E+00  0.8660253E+00 -0.7210489E-16
  0.4999987E-09  0.7104236E+01 -0.6999999E+01   0.5000002E+00  0.8660253E+00 -0.7210489E-16
  0.5000007E-09  0.7104236E+01  0.6999999E+01   0.5000002E+00  0.8660253E+00 -0.7210489E-16
  0.6152450E+01  0.3552115E+01  0.6999999E+01   0.5000002E+00  0.8660253E+00 -0.7210489E-16
           6
 -0.6152450E+01 -0.3552115E+01 -0.6999999E+01  -0.1625643E-15  0.0000000E+00 -0.1000000E+01
 -0.6152450E+01  0.3552115E+01 -0.6999999E+01  -0.1625643E-15  0.0000000E+00 -0.1000000E+01
  0.4999987E-09  0.7104236E+01 -0.6999999E+01  -0.1625643E-15  0.0000000E+00 -0.1000000E+01
  0.6152450E+01  0.3552115E+01 -0.6999999E+01  -0.1625643E-15  0.0000000E+00 -0.1000000E+01
  0.6152450E+01 -0.3552115E+01 -0.6999999E+01  -0.1625643E-15  0.0000000E+00 -0.1000000E+01
 -0.5000007E-09 -0.7104236E+01 -0.6999999E+01  -0.1625643E-15  0.0000000E+00 -0.1000000E+01
           6
 -0.5000007E-09 -0.7104236E+01  0.6999999E+01  -0.3251285E-15 -0.0000000E+00  0.1000000E+01
  0.6152450E+01 -0.3552115E+01  0.6999999E+01  -0.3251285E-15 -0.0000000E+00  0.1000000E+01
  0.6152450E+01  0.3552115E+01  0.6999999E+01  -0.3251285E-15 -0.0000000E+00  0.1000000E+01
  0.4999987E-09  0.7104236E+01  0.6999999E+01  -0.3251285E-15 -0.0000000E+00  0.1000000E+01
 -0.6152450E+01  0.3552115E+01  0.6999999E+01  -0.3251285E-15 -0.0000000E+00  0.1000000E+01
 -0.6152450E+01 -0.3552115E+01  0.6999999E+01  -0.3251285E-15 -0.0000000E+00  0.1000000E+01
           4
 -0.6152450E+01 -0.3552115E+01  0.6999999E+01  -0.5000002E+00 -0.8660253E+00  0.0000000E+00
 -0.6152450E+01 -0.3552115E+01 -0.6999999E+01  -0.5000002E+00 -0.8660253E+00  0.0000000E+00
 -0.5000007E-09 -0.7104236E+01 -0.6999999E+01  -0.5000002E+00 -0.8660253E+00  0.0000000E+00
 -0.4999997E-09 -0.7104236E+01  0.6999999E+01  -0.5000002E+00 -0.8660253E+00  0.0000000E+00
           4
  0.4999997E-09  0.7104236E+01  0.6999999E+01  -0.5000002E+00  0.8660253E+00  0.1428811E-15
  0.4999987E-09  0.7104236E+01 -0.6999999E+01  -0.5000002E+00  0.8660253E+00  0.1428811E-15
 -0.6152450E+01  0.3552115E+01 -0.6999999E+01  -0.5000002E+00  0.8660253E+00  0.1428811E-15
 -0.6152450E+01  0.3552115E+01  0.6999999E+01  -0.5000002E+00  0.8660253E+00  0.1428811E-15
           4
 -0.6152450E+01 -0.3552115E+01  0.6999999E+01  -0.1000000E+01  0.0000000E+00  0.6344132E-16
 -0.6152450E+01  0.3552115E+01  0.6999999E+01  -0.1000000E+01  0.0000000E+00  0.6344132E-16
 -0.6152450E+01  0.3552115E+01 -0.6999999E+01  -0.1000000E+01  0.0000000E+00  0.6344132E-16
 -0.6152450E+01 -0.3552115E+01 -0.6999999E+01  -0.1000000E+01  0.0000000E+00  0.6344132E-16
 WIGNER-SEITZ-PRIMCELL_END
 WIGNER-SEITZ-CONVCELL
           4
  0.6152450E+01 -0.3552115E+01 -0.6999999E+01   0.1000000E+01 -0.0000000E+00 -0.0000000E+00
  0.6152450E+01  0.3552115E+01 -0.6999999E+01   0.1000000E+01 -0.0000000E+00 -0.0000000E+00
  0.6152450E+01  0.3552115E+01  0.6999999E+01   0.1000000E+01 -0.0000000E+00 -0.0000000E+00
  0.6152450E+01 -0.3552115E+01  0.6999999E+01   0.1000000E+01 -0.0000000E+00 -0.0000000E+00
           4
  0.6152450E+01 -0.3552115E+01  0.6999999E+01   0.5000002E+00 -0.8660253E+00 -0.1435454E-15
 -0.4999987E-09 -0.7104236E+01  0.6999999E+01   0.5000002E+00 -0.8660253E+00 -0.1435454E-15
 -0.5000007E-09 -0.7104236E+01 -0.6999999E+01   0.5000002E+00 -0.8660253E+00 -0.1435454E-15
  0.6152450E+01 -0.3552115E+01 -0.6999999E+01   0.5000002E+00 -0.8660253E+00 -0.1435454E-15
           4
  0.6152450E+01  0.3552115E+01 -0.6999999E+01   0.5000002E+00  0.8660253E+00 -0.7210489E-16
  0.4999987E-09  0.7104236E+01 -0.6999999E+01   0.5000002E+00  0.8660253E+00 -0.7210489E-16
  0.5000007E-09  0.7104236E+01  0.6999999E+01   0.5000002E+00  0.8660253E+00 -0.7210489E-16
  0.6152450E+01  0.3552115E+01  0.6999999E+01   0.5000002E+00  0.8660253E+00 -0.7210489E-16
           6
 -0.6152450E+01 -0.3552115E+01 -0.6999999E+01  -0.1625643E-15  0.0000000E+00 -0.1000000E+01
 -0.6152450E+01  0.3552115E+01 -0.6999999E+01  -0.1625643E-15  0.0000000E+00 -0.1000000E+01
  0.4999987E-09  0.7104236E+01 -0.6999999E+01  -0.1625643E-15  0.0000000E+00 -0.1000000E+01
  0.6152450E+01  0.3552115E+01 -0.6999999E+01  -0.1625643E-15  0.0000000E+00 -0.1000000E+01
  0.6152450E+01 -0.3552115E+01 -0.6999999E+01  -0.1625643E-15  0.0000000E+00 -0.1000000E+01
 -0.5000007E-09 -0.7104236E+01 -0.6999999E+01  -0.1625643E-15  0.0000000E+00 -0.1000000E+01
           6
 -0.5000007E-09 -0.7104236E+01  0.6999999E+01  -0.3251285E-15 -0.0000000E+00  0.1000000E+01
  0.6152450E+01 -0.3552115E+01  0.6999999E+01  -0.3251285E-15 -0.0000000E+00  0.1000000E+01
  0.6152450E+01  0.3552115E+01  0.6999999E+01  -0.3251285E-15 -0.0000000E+00  0.1000000E+01
  0.4999987E-09  0.7104236E+01  0.6999999E+01  -0.3251285E-15 -0.0000000E+00  0.1000000E+01
 -0.6152450E+01  0.3552115E+01  0.6999999E+01  -0.3251285E-15 -0.0000000E+00  0.1000000E+01
 -0.6152450E+01 -0.3552115E+01  0.6999999E+01  -0.3251285E-15 -0.0000000E+00  0.1000000E+01
           4
 -0.6152450E+01 -0.3552115E+01  0.6999999E+01  -0.5000002E+00 -0.8660253E+00  0.0000000E+00
 -0.6152450E+01 -0.3552115E+01 -0.6999999E+01  -0.5000002E+00 -0.8660253E+00  0.0000000E+00
 -0.5000007E-09 -0.7104236E+01 -0.6999999E+01  -0.5000002E+00 -0.8660253E+00  0.0000000E+00
 -0.4999997E-09 -0.7104236E+01  0.6999999E+01  -0.5000002E+00 -0.8660253E+00  0.0000000E+00
           4
  0.4999997E-09  0.7104236E+01  0.6999999E+01  -0.5000002E+00  0.8660253E+00  0.1428811E-15
  0.4999987E-09  0.7104236E+01 -0.6999999E+01  -0.5000002E+00  0.8660253E+00  0.1428811E-15
 -0.6152450E+01  0.3552115E+01 -0.6999999E+01  -0.5000002E+00  0.8660253E+00  0.1428811E-15
 -0.6152450E+01  0.3552115E+01  0.6999999E+01  -0.5000002E+00  0.8660253E+00  0.1428811E-15
           4
 -0.6152450E+01 -0.3552115E+01  0.6999999E+01  -0.1000000E+01  0.0000000E+00  0.6344132E-16
 -0.6152450E+01  0.3552115E+01  0.6999999E+01  -0.1000000E+01  0.0000000E+00  0.6344132E-16
 -0.6152450E+01  0.3552115E+01 -0.6999999E+01  -0.1000000E+01  0.0000000E+00  0.6344132E-16
 -0.6152450E+01 -0.3552115E+01 -0.6999999E+01  -0.1000000E+01  0.0000000E+00  0.6344132E-16
 WIGNER-SEITZ-CONVCELL_END
 BRILLOUIN-ZONE-PRIMCELL
           4
 -0.5417897E-01  0.3813147E-11 -0.3571429E-01  -0.8660253E+00 -0.5000002E+00 -0.3418542E-26
 -0.2708947E-01 -0.4692038E-01 -0.3571429E-01  -0.8660253E+00 -0.5000002E+00 -0.3418542E-26
 -0.2708947E-01 -0.4692038E-01  0.3571429E-01  -0.8660253E+00 -0.5000002E+00 -0.3418542E-26
 -0.5417897E-01  0.3813141E-11  0.3571429E-01  -0.8660253E+00 -0.5000002E+00 -0.3418542E-26
           4
 -0.5417897E-01  0.3813147E-11  0.3571429E-01  -0.8660253E+00  0.5000002E+00  0.5603216E-16
 -0.2708947E-01  0.4692038E-01  0.3571429E-01  -0.8660253E+00  0.5000002E+00  0.5603216E-16
 -0.2708947E-01  0.4692038E-01 -0.3571429E-01  -0.8660253E+00  0.5000002E+00  0.5603216E-16
 -0.5417897E-01  0.3813147E-11 -0.3571429E-01  -0.8660253E+00  0.5000002E+00  0.5603216E-16
           4
 -0.2708947E-01 -0.4692038E-01 -0.3571429E-01  -0.3732495E-31 -0.1000000E+01  0.2793475E-16
  0.2708947E-01 -0.4692038E-01 -0.3571429E-01  -0.3732495E-31 -0.1000000E+01  0.2793475E-16
  0.2708947E-01 -0.4692038E-01  0.3571429E-01  -0.3732495E-31 -0.1000000E+01  0.2793475E-16
 -0.2708947E-01 -0.4692038E-01  0.3571429E-01  -0.3732495E-31 -0.1000000E+01  0.2793475E-16
           6
 -0.5417897E-01  0.3813147E-11 -0.3571429E-01   0.0000000E+00 -0.3411994E-15 -0.1000000E+01
 -0.2708947E-01  0.4692038E-01 -0.3571429E-01   0.0000000E+00 -0.3411994E-15 -0.1000000E+01
  0.2708947E-01  0.4692038E-01 -0.3571429E-01   0.0000000E+00 -0.3411994E-15 -0.1000000E+01
  0.5417897E-01 -0.3813153E-11 -0.3571429E-01   0.0000000E+00 -0.3411994E-15 -0.1000000E+01
  0.2708947E-01 -0.4692038E-01 -0.3571429E-01   0.0000000E+00 -0.3411994E-15 -0.1000000E+01
 -0.2708947E-01 -0.4692038E-01 -0.3571429E-01   0.0000000E+00 -0.3411994E-15 -0.1000000E+01
           6
 -0.2708947E-01 -0.4692038E-01  0.3571429E-01  -0.0000000E+00 -0.3411994E-15  0.1000000E+01
  0.2708947E-01 -0.4692038E-01  0.3571429E-01  -0.0000000E+00 -0.3411994E-15  0.1000000E+01
  0.5417897E-01 -0.3813144E-11  0.3571429E-01  -0.0000000E+00 -0.3411994E-15  0.1000000E+01
  0.2708947E-01  0.4692038E-01  0.3571429E-01  -0.0000000E+00 -0.3411994E-15  0.1000000E+01
 -0.2708947E-01  0.4692038E-01  0.3571429E-01  -0.0000000E+00 -0.3411994E-15  0.1000000E+01
 -0.5417897E-01  0.3813147E-11  0.3571429E-01  -0.0000000E+00 -0.3411994E-15  0.1000000E+01
           4
 -0.2708947E-01  0.4692038E-01  0.3571429E-01  -0.1280737E-15  0.1000000E+01  0.1120644E-15
  0.2708947E-01  0.4692038E-01  0.3571429E-01  -0.1280737E-15  0.1000000E+01  0.1120644E-15
  0.2708947E-01  0.4692038E-01 -0.3571429E-01  -0.1280737E-15  0.1000000E+01  0.1120644E-15
 -0.2708947E-01  0.4692038E-01 -0.3571429E-01  -0.1280737E-15  0.1000000E+01  0.1120644E-15
           4
  0.2708947E-01 -0.4692038E-01 -0.3571429E-01   0.8660253E+00 -0.5000002E+00 -0.4353846E-16
  0.5417897E-01 -0.3813147E-11 -0.3571429E-01   0.8660253E+00 -0.5000002E+00 -0.4353846E-16
  0.5417897E-01 -0.3813153E-11  0.3571429E-01   0.8660253E+00 -0.5000002E+00 -0.4353846E-16
  0.2708947E-01 -0.4692038E-01  0.3571429E-01   0.8660253E+00 -0.5000002E+00 -0.4353846E-16
           4
  0.2708947E-01  0.4692038E-01  0.3571429E-01   0.8660253E+00  0.5000002E+00 -0.1712065E-15
  0.5417897E-01 -0.3813134E-11  0.3571429E-01   0.8660253E+00  0.5000002E+00 -0.1712065E-15
  0.5417897E-01 -0.3813147E-11 -0.3571429E-01   0.8660253E+00  0.5000002E+00 -0.1712065E-15
  0.2708947E-01  0.4692038E-01 -0.3571429E-01   0.8660253E+00  0.5000002E+00 -0.1712065E-15
 BRILLOUIN-ZONE-PRIMCELL_END
 BRILLOUIN-ZONE-CONVCELL
           4
 -0.5417897E-01  0.3813147E-11 -0.3571429E-01  -0.8660253E+00 -0.5000002E+00 -0.3418542E-26
 -0.2708947E-01 -0.4692038E-01 -0.3571429E-01  -0.8660253E+00 -0.5000002E+00 -0.3418542E-26
 -0.2708947E-01 -0.4692038E-01  0.3571429E-01  -0.8660253E+00 -0.5000002E+00 -0.3418542E-26
 -0.5417897E-01  0.3813141E-11  0.3571429E-01  -0.8660253E+00 -0.5000002E+00 -0.3418542E-26
           4
 -0.5417897E-01  0.3813147E-11  0.3571429E-01  -0.8660253E+00  0.5000002E+00  0.5603216E-16
 -0.2708947E-01  0.4692038E-01  0.3571429E-01  -0.8660253E+00  0.5000002E+00  0.5603216E-16
 -0.2708947E-01  0.4692038E-01 -0.3571429E-01  -0.8660253E+00  0.5000002E+00  0.5603216E-16
 -0.5417897E-01  0.3813147E-11 -0.3571429E-01  -0.8660253E+00  0.5000002E+00  0.5603216E-16
           4
 -0.2708947E-01 -0.4692038E-01 -0.3571429E-01  -0.3732495E-31 -0.1000000E+01  0.2793475E-16
  0.2708947E-01 -0.4692038E-01 -0.3571429E-01  -0.3732495E-31 -0.1000000E+01  0.2793475E-16
  0.2708947E-01 -0.4692038E-01  0.3571429E-01  -0.3732495E-31 -0.1000000E+01  0.2793475E-16
 -0.2708947E-01 -0.4692038E-01  0.3571429E-01  -0.3732495E-31 -0.1000000E+01  0.2793475E-16
           6
 -0.5417897E-01  0.3813147E-11 -0.3571429E-01   0.0000000E+00 -0.3411994E-15 -0.1000000E+01
 -0.2708947E-01  0.4692038E-01 -0.3571429E-01   0.0000000E+00 -0.3411994E-15 -0.1000000E+01
  0.2708947E-01  0.4692038E-01 -0.3571429E-01   0.0000000E+00 -0.3411994E-15 -0.1000000E+01
  0.5417897E-01 -0.3813153E-11 -0.3571429E-01   0.0000000E+00 -0.3411994E-15 -0.1000000E+01
  0.2708947E-01 -0.4692038E-01 -0.3571429E-01   0.0000000E+00 -0.3411994E-15 -0.1000000E+01
 -0.2708947E-01 -0.4692038E-01 -0.3571429E-01   0.0000000E+00 -0.3411994E-15 -0.1000000E+01
           6
 -0.2708947E-01 -0.4692038E-01  0.3571429E-01  -0.0000000E+00 -0.3411994E-15  0.1000000E+01
  0.2708947E-01 -0.4692038E-01  0.3571429E-01  -0.0000000E+00 -0.3411994E-15  0.1000000E+01
  0.5417897E-01 -0.3813144E-11  0.3571429E-01  -0.0000000E+00 -0.3411994E-15  0.1000000E+01
  0.2708947E-01  0.4692038E-01  0.3571429E-01  -0.0000000E+00 -0.3411994E-15  0.1000000E+01
 -0.2708947E-01  0.4692038E-01  0.3571429E-01  -0.0000000E+00 -0.3411994E-15  0.1000000E+01
 -0.5417897E-01  0.3813147E-11  0.3571429E-01  -0.0000000E+00 -0.3411994E-15  0.1000000E+01
           4
 -0.2708947E-01  0.4692038E-01  0.3571429E-01  -0.1280737E-15  0.1000000E+01  0.1120644E-15
  0.2708947E-01  0.4692038E-01  0.3571429E-01  -0.1280737E-15  0.1000000E+01  0.1120644E-15
  0.2708947E-01  0.4692038E-01 -0.3571429E-01  -0.1280737E-15  0.1000000E+01  0.1120644E-15
 -0.2708947E-01  0.4692038E-01 -0.3571429E-01  -0.1280737E-15  0.1000000E+01  0.1120644E-15
           4
  0.2708947E-01 -0.4692038E-01 -0.3571429E-01   0.8660253E+00 -0.5000002E+00 -0.4353846E-16
  0.5417897E-01 -0.3813147E-11 -0.3571429E-01   0.8660253E+00 -0.5000002E+00 -0.4353846E-16
  0.5417897E-01 -0.3813153E-11  0.3571429E-01   0.8660253E+00 -0.5000002E+00 -0.4353846E-16
  0.2708947E-01 -0.4692038E-01  0.3571429E-01   0.8660253E+00 -0.5000002E+00 -0.4353846E-16
           4
  0.2708947E-01  0.4692038E-01  0.3571429E-01   0.8660253E+00  0.5000002E+00 -0.1712065E-15
  0.5417897E-01 -0.3813134E-11  0.3571429E-01   0.8660253E+00  0.5000002E+00 -0.1712065E-15
  0.5417897E-01 -0.3813147E-11 -0.3571429E-01   0.8660253E+00  0.5000002E+00 -0.1712065E-15
  0.2708947E-01  0.4692038E-01 -0.3571429E-01   0.8660253E+00  0.5000002E+00 -0.1712065E-15
 BRILLOUIN-ZONE-CONVCELL_END
 ATOMS
    6    1.2305023000    0.7104376070    6.9999711790   -0.0325106300    0.0141626200   -0.0015670000
    6    0.0000123050    1.4208539020    6.9999711790    0.0114131800   -0.0536046700    0.0212475300
    6   -0.0082588210    2.8375761330    7.4027933140    0.0001306200    0.0001917500   -0.0000991400
    6   -1.2304838430    3.5521347540    6.9999711790   -0.0508832400    0.0185523500    0.0107711900
    6   -1.2395405200    4.9589287510    6.9733373020   -0.0000348900    0.0001081100   -0.0004216000
    6   -2.4609799900    5.6834156060    6.9999711790   -0.0364225900   -0.0672511300    0.0004582300
    6   -2.4546473900    7.1063791990    7.4082455010    0.0002797000    0.0001477900   -0.0002611600
    6   -3.6914761380    7.8146964590    6.9999711790   -0.0531570000    0.0317995100    0.0177524000
    6   -3.6914822900    9.2355397040    6.9999711790    0.0055356900   -0.0429169500   -0.0130266400
    6   -4.9219784380    9.9459666550    6.9999711790   -0.0219383700    0.0031419200   -0.0151770500
    6    3.6914822900    0.7104376070    6.9999711790    0.0177318800   -0.0150140800    0.0091687000
    6    2.4604739640    1.4416906700    7.0426589240   -0.0001054400    0.0002192400   -0.0002354200
    6    2.4459277140    2.8519460200    7.0916494960   -0.0001366700   -0.0001548800   -0.0000014700
    6    1.2448646590    3.5712241470    7.1236115630    0.0000478700   -0.0003352000   -0.0002665300
    6    1.2037042280    4.9715932170    7.1467096700   -0.0001702200    0.0005722500    0.0000590500
    6    0.0028412010    5.6763657060    7.0809720760   -0.0000306600   -0.0003208200   -0.0001097800
    6    0.0000319070    7.1164252070    7.0853217350    0.0003723400   -0.0000809700   -0.0007277700
    6   -1.1950025530    7.8327458880    7.1050595490   -0.0002888100   -0.0003188100   -0.0003243200
    6   -1.2268844320    9.2389741930    7.0259203300    0.0000230100    0.0002269100    0.0002228300
    6   -2.4609984480    9.9459666550    6.9999711790    0.0053370900    0.0152267600    0.0012781500
    6    6.1524745850    0.7104376070    6.9999711790   -0.0168353900    0.0049770000    0.0040101700
    6    4.9289135350    1.3867547400    7.0541157110    0.0002953700   -0.0001232400   -0.0000753800
    6    4.9292229540    2.8329610380    7.4266352410   -0.0002714500    0.0000040200   -0.0000035500
    6    3.6815838350    3.5897506710    7.1112707740    0.0002737100    0.0002896100   -0.0001084100
    6    3.6936860920    4.9542000700    7.1273487220   -0.0000843200   -0.0002669100   -0.0002141000
    6    2.4538597910    5.7032793750    7.4866391640    0.0000210700   -0.0001701200    0.0001087600
    6    2.4641490500    7.1447516530    7.1093375560    0.0002289100   -0.0000034500    0.0000712300
    6    1.2376753610    7.8313582920    7.0484084300    0.0000154800   -0.0005274000   -0.0006444500
    6    1.2274236330    9.2375376530    7.0009301930    0.0000303300    0.0001180500    0.0004554600
    6   -0.0000061520    9.9459666550    6.9999711790    0.0054541700    0.0088716200   -0.0133395600
    6    8.6134668800    0.7104376070    6.9999711790    0.0249747300    0.0137575800    0.0007492000
    6    7.3856695730    1.4380532630    7.0162389530   -0.0000436200   -0.0005814800    0.0000216000
    6    7.3956565620    2.8442850100    7.0181126290   -0.0001505000    0.0004883200   -0.0001511400
    6    6.1695723480    3.5732263900    7.0787984360    0.0005626600    0.0001050100    0.0005404000
    6    6.1328224670    4.9446627750    7.0782101840    0.0001589500   -0.0002029200   -0.0002543400
    6    4.9242068120    5.6870600250    7.0967467420    0.0001441900   -0.0000708100    0.0003602900
    6    4.9276274140    7.0831959020    7.0652846860    0.0001327100   -0.0000378600    0.0001025800
    6    3.6775898800    7.8179183320    7.0460078080    0.0000831600    0.0001994500   -0.0001407000
    6    3.6848149720    9.2382182950    6.9968234760    0.0000988900   -0.0004023400    0.0000320000
    6    2.4609861430    9.9459666550    6.9999711790    0.0080885500    0.0050779600   -0.0030528800
    6   11.0744468710    0.7104376070    6.9999711790    0.0268285200   -0.0179674300   -0.0083249900
    6    9.8439568750    1.4208539020    6.9999711790   -0.0344700900   -0.0093303500    0.0081128000
    6    9.8439507230    2.8416971470    6.9999711790    0.0212412900    0.0178113400   -0.0253933400
    6    8.6219111120    3.5586347550    6.9578076220   -0.0001250300   -0.0002869600    0.0001789800
    6    8.6134545760    4.9729779990    6.9999711790    0.0754501400    0.0050773600    0.0075003000
    6    7.3804783690    5.6771712080    7.4021436860    0.0000249200    0.0000575400   -0.0002758300
    6    7.3829584280    7.1042588520    6.9999711790    0.0256254400    0.0567349300    0.0156390400
    6    6.1668653320    7.8131111030    6.9919103720    0.0001578500    0.0000065600    0.0001180100
    6    6.1524622800    9.2355397040    6.9999711790    0.0299788000   -0.0129521600   -0.0085960500
    6    4.9219661330    9.9459666550    6.9999711790   -0.0155264100    0.0228603500   -0.0070219700
    8    2.4779433650    5.7982921990    8.9819895170   -0.0000777000   -0.0001075900    0.0002593100
    1    2.3789293730    4.8807813070    9.3181768950   -0.0001197400    0.0000934800    0.0006051400
    8   -2.5683834570    7.1146377110    8.9220382760    0.0002008300    0.0004598600   -0.0001233000